<VTKFile type="UnstructuredGrid"  version="0.1"   > 
<UnstructuredGrid> 
<Piece  NumberOfPoints="  170" NumberOfCells=" 298"> 
<Points> 
<DataArray  type="Float64"  NumberOfComponents="3"  format="ascii" > 
0.000000 0.000000 0.0 
0.007143 0.000000 0.0 
0.007143 0.007143 0.0 
0.000000 0.007143 0.0 
0.005893 0.003571 0.0 
0.003571 0.005893 0.0 
0.001250 0.003571 0.0 
0.003571 0.001250 0.0 
0.000714 0.000000 0.0 
0.001429 0.000000 0.0 
0.002143 0.000000 0.0 
0.002857 0.000000 0.0 
0.003571 0.000000 0.0 
0.004286 0.000000 0.0 
0.005000 0.000000 0.0 
0.005714 0.000000 0.0 
0.006429 0.000000 0.0 
0.000714 0.007143 0.0 
0.001429 0.007143 0.0 
0.002143 0.007143 0.0 
0.002857 0.007143 0.0 
0.003571 0.007143 0.0 
0.004286 0.007143 0.0 
0.005000 0.007143 0.0 
0.005714 0.007143 0.0 
0.006429 0.007143 0.0 
0.000000 0.000714 0.0 
0.000000 0.001429 0.0 
0.000000 0.002143 0.0 
0.000000 0.002857 0.0 
0.000000 0.003571 0.0 
0.000000 0.004286 0.0 
0.000000 0.005000 0.0 
0.000000 0.005714 0.0 
0.000000 0.006429 0.0 
0.007143 0.000714 0.0 
0.007143 0.001429 0.0 
0.007143 0.002143 0.0 
0.007143 0.002857 0.0 
0.007143 0.003571 0.0 
0.007143 0.004286 0.0 
0.007143 0.005000 0.0 
0.007143 0.005714 0.0 
0.007143 0.006429 0.0 
0.005814 0.004172 0.0 
0.005582 0.004732 0.0 
0.005213 0.005213 0.0 
0.004732 0.005582 0.0 
0.004172 0.005814 0.0 
0.002971 0.005814 0.0 
0.002411 0.005582 0.0 
0.001930 0.005213 0.0 
0.001561 0.004732 0.0 
0.001329 0.004172 0.0 
0.001329 0.002971 0.0 
0.001561 0.002411 0.0 
0.001930 0.001930 0.0 
0.002411 0.001561 0.0 
0.002971 0.001329 0.0 
0.004172 0.001329 0.0 
0.004732 0.001561 0.0 
0.005213 0.001930 0.0 
0.005582 0.002411 0.0 
0.005814 0.002971 0.0 
0.001099 0.001212 0.0 
0.005931 0.001099 0.0 
0.001212 0.006044 0.0 
0.006044 0.005931 0.0 
0.000865 0.001884 0.0 
0.001884 0.006278 0.0 
0.002057 0.000967 0.0 
0.006176 0.002057 0.0 
0.006278 0.005259 0.0 
0.005259 0.000865 0.0 
0.000967 0.005086 0.0 
0.005086 0.006176 0.0 
0.003250 0.006468 0.0 
0.000675 0.003250 0.0 
0.003250 0.000675 0.0 
0.006468 0.003250 0.0 
0.006463 0.003903 0.0 
0.003903 0.000680 0.0 
0.000680 0.003903 0.0 
0.003903 0.006463 0.0 
0.002573 0.006316 0.0 
0.000827 0.002573 0.0 
0.006316 0.004570 0.0 
0.006309 0.002632 0.0 
0.004570 0.000827 0.0 
0.002632 0.000834 0.0 
0.004513 0.006308 0.0 
0.000835 0.004513 0.0 
0.001658 0.001384 0.0 
0.005759 0.001658 0.0 
0.001384 0.005485 0.0 
0.005485 0.005759 0.0 
0.000650 0.000650 0.0 
0.006493 0.000650 0.0 
0.000650 0.006493 0.0 
0.006493 0.006493 0.0 
0.005249 0.001385 0.0 
0.005758 0.005249 0.0 
0.001385 0.001893 0.0 
0.001893 0.005758 0.0 
0.000484 0.001447 0.0 
0.001500 0.000586 0.0 
0.001447 0.006659 0.0 
0.006557 0.001500 0.0 
0.005695 0.000484 0.0 
0.006659 0.005695 0.0 
0.000586 0.005643 0.0 
0.005643 0.006557 0.0 
0.000472 0.002246 0.0 
0.002246 0.006671 0.0 
0.002238 0.000477 0.0 
0.006666 0.002238 0.0 
0.004896 0.000472 0.0 
0.006671 0.004896 0.0 
0.000478 0.004906 0.0 
0.004906 0.006665 0.0 
0.003530 0.003590 0.0 
0.004712 0.003995 0.0 
0.003139 0.004772 0.0 
0.003795 0.002363 0.0 
0.002326 0.003352 0.0 
0.004736 0.003060 0.0 
0.004140 0.004882 0.0 
0.002729 0.002443 0.0 
0.002290 0.004314 0.0 
0.005128 0.003472 0.0 
0.004442 0.002240 0.0 
0.003016 0.003905 0.0 
0.003967 0.004145 0.0 
0.003272 0.002942 0.0 
0.003522 0.005210 0.0 
0.002128 0.002795 0.0 
0.004848 0.004660 0.0 
0.003270 0.001923 0.0 
0.004244 0.003470 0.0 
0.002513 0.004900 0.0 
0.001891 0.003820 0.0 
0.003817 0.003009 0.0 
0.005213 0.004251 0.0 
0.003803 0.001810 0.0 
0.004897 0.002466 0.0 
0.002911 0.005255 0.0 
0.001785 0.003302 0.0 
0.002962 0.003399 0.0 
0.005285 0.002948 0.0 
0.003408 0.004218 0.0 
0.002385 0.002019 0.0 
0.004325 0.005379 0.0 
0.002671 0.002988 0.0 
0.001821 0.004304 0.0 
0.003635 0.004645 0.0 
0.002048 0.004720 0.0 
0.004285 0.002726 0.0 
0.004404 0.004418 0.0 
0.003267 0.002418 0.0 
0.005445 0.003834 0.0 
0.004279 0.001793 0.0 
0.004702 0.003536 0.0 
0.002543 0.003859 0.0 
0.002818 0.004328 0.0 
0.002767 0.001833 0.0 
0.002111 0.002336 0.0 
0.004666 0.005141 0.0 
0.003927 0.005448 0.0 
0.004749 0.001992 0.0 
0.005513 0.003359 0.0 
</DataArray> 
</Points> 
<Cells> 
<DataArray  type="Int32"  Name="connectivity"  format="ascii"> 
55 85 102 
50 84 103 
60 88 100 
45 86 101 
62 93 71 
57 92 70 
52 94 74 
47 95 75 
62 71 87 
57 70 89 
52 74 91 
47 75 90 
41 109 117 
23 119 111 
14 108 116 
32 118 110 
19 106 113 
37 115 107 
28 104 112 
10 114 105 
64 102 68 
66 103 69 
65 100 73 
67 101 72 
23 111 24 
41 42 109 
32 110 33 
14 15 108 
36 37 107 
18 106 19 
9 10 105 
27 104 28 
68 102 85 
69 103 84 
73 100 88 
72 101 86 
7 78 81 
6 82 77 
5 83 76 
4 79 80 
29 85 77 
11 78 89 
20 84 76 
38 79 87 
40 86 80 
13 88 81 
31 82 91 
22 83 90 
68 112 104 
69 113 106 
70 105 114 
73 116 108 
71 107 115 
72 117 109 
74 110 118 
75 111 119 
26 96 104 
8 105 96 
17 98 106 
35 107 97 
16 97 108 
34 110 98 
43 99 109 
25 111 99 
0 8 96 
0 96 26 
1 35 97 
3 98 17 
1 97 16 
3 34 98 
2 25 99 
2 99 43 
39 80 79 
12 81 78 
21 76 83 
30 77 82 
40 117 86 
31 91 118 
13 116 88 
22 90 119 
11 89 114 
38 87 115 
20 113 84 
29 112 85 
26 104 27 
8 9 105 
17 106 18 
35 36 107 
15 16 108 
33 110 34 
42 43 109 
24 111 25 
64 68 104 
66 69 106 
65 73 108 
67 72 109 
5 76 49 
6 77 54 
7 58 78 
4 63 79 
4 80 44 
7 81 59 
6 53 82 
5 48 83 
61 93 62 
56 92 57 
46 95 47 
51 94 52 
64 92 102 
66 94 103 
67 95 101 
65 93 100 
54 85 55 
62 87 63 
57 89 58 
49 84 50 
44 86 45 
47 90 48 
52 91 53 
59 88 60 
70 92 105 
71 93 107 
74 94 110 
75 95 111 
64 105 92 
65 107 93 
66 110 94 
67 111 95 
49 76 84 
54 77 85 
63 87 79 
58 89 78 
44 80 86 
59 81 88 
48 90 83 
53 91 82 
30 82 31 
21 83 22 
39 40 80 
12 13 81 
11 12 78 
38 39 79 
20 76 21 
29 77 30 
64 104 96 
64 96 105 
65 108 97 
66 106 98 
66 98 110 
65 97 107 
67 109 99 
67 99 111 
40 41 117 
22 119 23 
13 14 116 
31 118 32 
19 113 20 
37 38 115 
28 112 29 
10 11 114 
45 101 46 
60 100 61 
55 102 56 
50 103 51 
56 102 92 
51 103 94 
46 101 95 
61 100 93 
69 84 113 
68 85 112 
71 115 87 
70 114 89 
72 86 117 
73 88 116 
75 119 90 
74 118 91 
142 121 159 
143 160 123 
159 121 129 
160 130 123 
5 49 134 
54 55 135 
45 46 136 
7 137 58 
45 136 142 
7 143 137 
49 145 134 
54 135 146 
121 132 138 
120 138 132 
125 138 156 
138 141 156 
156 144 125 
130 144 156 
121 161 129 
120 133 141 
125 148 129 
120 149 131 
120 131 147 
50 51 139 
6 140 53 
120 141 138 
121 142 136 
123 137 143 
123 141 133 
125 129 161 
123 130 156 
120 132 149 
120 147 133 
50 139 145 
6 146 140 
122 134 145 
124 146 135 
127 135 165 
126 167 134 
126 136 166 
127 164 137 
126 154 132 
127 133 152 
122 145 139 
124 140 146 
44 45 142 
7 59 143 
49 50 145 
6 54 146 
124 135 152 
127 152 135 
121 157 132 
123 133 158 
126 132 157 
127 158 133 
125 161 138 
122 154 134 
126 134 154 
124 162 140 
128 140 162 
62 63 148 
126 157 136 
127 137 158 
55 165 135 
5 134 167 
46 166 136 
58 137 164 
121 136 157 
123 158 137 
61 62 144 
122 139 163 
128 163 139 
127 165 150 
126 151 167 
126 166 151 
127 150 164 
122 163 149 
131 149 163 
62 148 144 
121 138 161 
125 144 148 
124 147 162 
131 162 147 
53 140 153 
128 139 155 
128 153 140 
51 155 139 
123 156 141 
132 154 149 
133 147 152 
56 57 150 
47 48 151 
52 53 153 
51 52 155 
4 44 159 
59 60 160 
130 168 144 
5 167 48 
46 47 166 
57 58 164 
55 56 165 
44 142 159 
59 160 143 
61 144 168 
4 169 63 
60 61 168 
124 152 147 
122 149 154 
128 155 153 
131 163 162 
128 162 163 
4 159 169 
60 168 160 
52 153 155 
129 169 159 
130 160 168 
129 148 169 
63 169 148 
56 150 165 
57 164 150 
47 151 166 
48 167 151 
</DataArray> 
<DataArray  type="Int32"  Name="offsets"  format="ascii"> 
3 6 9 12 15 18 21 24 27 30 33 36 39 42 45 48 51 54 57 60 63 66 69 72 75 78 81 84 87 90 93 96 99 102 105 108 111 114 117 120 123 126 129 132 135 138 141 144 147 150 153 156 159 162 165 168 171 174 177 180 183 186 189 192 195 198 201 204 207 210 213 216 219 222 225 228 231 234 237 240 243 246 249 252 255 258 261 264 267 270 273 276 279 282 285 288 291 294 297 300 303 306 309 312 315 318 321 324 327 330 333 336 339 342 345 348 351 354 357 360 363 366 369 372 375 378 381 384 387 390 393 396 399 402 405 408 411 414 417 420 423 426 429 432 435 438 441 444 447 450 453 456 459 462 465 468 471 474 477 480 483 486 489 492 495 498 501 504 507 510 513 516 519 522 525 528 531 534 537 540 543 546 549 552 555 558 561 564 567 570 573 576 579 582 585 588 591 594 597 600 603 606 609 612 615 618 621 624 627 630 633 636 639 642 645 648 651 654 657 660 663 666 669 672 675 678 681 684 687 690 693 696 699 702 705 708 711 714 717 720 723 726 729 732 735 738 741 744 747 750 753 756 759 762 765 768 771 774 777 780 783 786 789 792 795 798 801 804 807 810 813 816 819 822 825 828 831 834 837 840 843 846 849 852 855 858 861 864 867 870 873 876 879 882 885 888 891 894 </DataArray> 
<DataArray  type="UInt8"  Name="types"  format="ascii"> 
5 5 5 5 5 5 5 5 5 5 5 5 5 5 5 5 5 5 5 5 5 5 5 5 5 5 5 5 5 5 5 5 5 5 5 5 5 5 5 5 5 5 5 5 5 5 5 5 5 5 5 5 5 5 5 5 5 5 5 5 5 5 5 5 5 5 5 5 5 5 5 5 5 5 5 5 5 5 5 5 5 5 5 5 5 5 5 5 5 5 5 5 5 5 5 5 5 5 5 5 5 5 5 5 5 5 5 5 5 5 5 5 5 5 5 5 5 5 5 5 5 5 5 5 5 5 5 5 5 5 5 5 5 5 5 5 5 5 5 5 5 5 5 5 5 5 5 5 5 5 5 5 5 5 5 5 5 5 5 5 5 5 5 5 5 5 5 5 5 5 5 5 5 5 5 5 5 5 5 5 5 5 5 5 5 5 5 5 5 5 5 5 5 5 5 5 5 5 5 5 5 5 5 5 5 5 5 5 5 5 5 5 5 5 5 5 5 5 5 5 5 5 5 5 5 5 5 5 5 5 5 5 5 5 5 5 5 5 5 5 5 5 5 5 5 5 5 5 5 5 5 5 5 5 5 5 5 5 5 5 5 5 5 5 5 5 5 5 5 5 5 5 5 5 5 5 5 5 5 5 5 5 5 5 5 5 5 5 5 5 5 5 5 5 5 5 5 5 </DataArray> 
</Cells> 
<PointData  Scalars="DataArray"> 
<DataArray  type="Float64"  Name="u" NumberOfComponents="1" format="ascii"> 
101.75510937   
101.75510937   
101.75510937   
101.75510937   
101.75510937   
101.75510937   
101.75510937   
101.75510937   
101.75510937   
101.75510937   
101.75510937   
101.75510937   
101.75510937   
101.75510937   
101.75510937   
101.75510937   
101.75510937   
101.75510937   
101.75510937   
101.75510937   
101.75510937   
101.75510937   
101.75510937   
101.75510937   
101.75510937   
101.75510937   
101.75510937   
101.75510937   
101.75510937   
101.75510937   
101.75510937   
101.75510937   
101.75510937   
101.75510937   
101.75510937   
101.75510937   
101.75510937   
101.75510937   
101.75510937   
101.75510937   
101.75510937   
101.75510937   
101.75510937   
101.75510937   
101.75510937   
101.75510937   
101.75510937   
101.75510937   
101.75510937   
101.75510937   
101.75510937   
101.75510937   
101.75510937   
101.75510937   
101.75510937   
101.75510937   
101.75510937   
101.75510937   
101.75510937   
101.75510937   
101.75510937   
101.75510937   
101.75510937   
101.75510937   
101.75510937   
101.75510937   
101.75510937   
101.75510937   
101.75510937   
101.75510937   
101.75510937   
101.75510937   
101.75510937   
101.75510937   
101.75510937   
101.75510937   
101.75510937   
101.75510937   
101.75510937   
101.75510937   
101.75510937   
101.75510937   
101.75510937   
101.75510937   
101.75510937   
101.75510937   
101.75510937   
101.75510937   
101.75510937   
101.75510937   
101.75510937   
101.75510937   
101.75510937   
101.75510937   
101.75510937   
101.75510937   
101.75510937   
101.75510937   
101.75510937   
101.75510937   
101.75510937   
101.75510937   
101.75510937   
101.75510937   
101.75510937   
101.75510937   
101.75510937   
101.75510937   
101.75510937   
101.75510937   
101.75510937   
101.75510937   
101.75510937   
101.75510937   
101.75510937   
101.75510937   
101.75510937   
101.75510937   
101.75510937   
101.75510937   
101.75510937   
101.75510937   
101.75510937   
101.75510937   
101.75510937   
101.75510937   
101.75510937   
101.75510937   
101.75510937   
101.75510937   
101.75510937   
101.75510937   
101.75510937   
101.75510937   
101.75510937   
101.75510937   
101.75510937   
101.75510937   
101.75510937   
101.75510937   
101.75510937   
101.75510937   
101.75510937   
101.75510937   
101.75510937   
101.75510937   
101.75510937   
101.75510937   
101.75510937   
101.75510937   
101.75510937   
101.75510937   
101.75510937   
101.75510937   
101.75510937   
101.75510937   
101.75510937   
101.75510937   
101.75510937   
101.75510937   
101.75510937   
101.75510937   
101.75510937   
101.75510937   
101.75510937   
101.75510937   
101.75510937   
101.75510937   
101.75510937   
101.75510937   
</DataArray> 
</PointData> 
</Piece> 
</UnstructuredGrid> 
</VTKFile> 
