<VTKFile type="UnstructuredGrid"  version="0.1"   > 
<UnstructuredGrid> 
<Piece  NumberOfPoints="  651" NumberOfCells=" 1132"> 
<Points> 
<DataArray  type="Float64"  NumberOfComponents="3"  format="ascii" > 
0.000000 0.000000 0.0 
0.003571 0.000000 0.0 
0.003571 0.003571 0.0 
0.000000 0.003571 0.0 
0.002946 0.001786 0.0 
0.001786 0.002946 0.0 
0.000625 0.001786 0.0 
0.001786 0.000625 0.0 
0.002946 0.001786 0.0 
0.001786 0.002946 0.0 
0.000625 0.001786 0.0 
0.001786 0.000625 0.0 
0.000179 0.000000 0.0 
0.000357 0.000000 0.0 
0.000536 0.000000 0.0 
0.000714 0.000000 0.0 
0.000893 0.000000 0.0 
0.001071 0.000000 0.0 
0.001250 0.000000 0.0 
0.001429 0.000000 0.0 
0.001607 0.000000 0.0 
0.001786 0.000000 0.0 
0.001964 0.000000 0.0 
0.002143 0.000000 0.0 
0.002321 0.000000 0.0 
0.002500 0.000000 0.0 
0.002679 0.000000 0.0 
0.002857 0.000000 0.0 
0.003036 0.000000 0.0 
0.003214 0.000000 0.0 
0.003393 0.000000 0.0 
0.000179 0.003571 0.0 
0.000357 0.003571 0.0 
0.000536 0.003571 0.0 
0.000714 0.003571 0.0 
0.000893 0.003571 0.0 
0.001071 0.003571 0.0 
0.001250 0.003571 0.0 
0.001429 0.003571 0.0 
0.001607 0.003571 0.0 
0.001786 0.003571 0.0 
0.001964 0.003571 0.0 
0.002143 0.003571 0.0 
0.002321 0.003571 0.0 
0.002500 0.003571 0.0 
0.002679 0.003571 0.0 
0.002857 0.003571 0.0 
0.003036 0.003571 0.0 
0.003214 0.003571 0.0 
0.003393 0.003571 0.0 
0.000000 0.000179 0.0 
0.000000 0.000357 0.0 
0.000000 0.000536 0.0 
0.000000 0.000714 0.0 
0.000000 0.000893 0.0 
0.000000 0.001071 0.0 
0.000000 0.001250 0.0 
0.000000 0.001429 0.0 
0.000000 0.001607 0.0 
0.000000 0.001786 0.0 
0.000000 0.001964 0.0 
0.000000 0.002143 0.0 
0.000000 0.002321 0.0 
0.000000 0.002500 0.0 
0.000000 0.002679 0.0 
0.000000 0.002857 0.0 
0.000000 0.003036 0.0 
0.000000 0.003214 0.0 
0.000000 0.003393 0.0 
0.003571 0.000179 0.0 
0.003571 0.000357 0.0 
0.003571 0.000536 0.0 
0.003571 0.000714 0.0 
0.003571 0.000893 0.0 
0.003571 0.001071 0.0 
0.003571 0.001250 0.0 
0.003571 0.001429 0.0 
0.003571 0.001607 0.0 
0.003571 0.001786 0.0 
0.003571 0.001964 0.0 
0.003571 0.002143 0.0 
0.003571 0.002321 0.0 
0.003571 0.002500 0.0 
0.003571 0.002679 0.0 
0.003571 0.002857 0.0 
0.003571 0.003036 0.0 
0.003571 0.003214 0.0 
0.003571 0.003393 0.0 
0.002935 0.001951 0.0 
0.002899 0.002113 0.0 
0.002842 0.002268 0.0 
0.002762 0.002413 0.0 
0.002663 0.002546 0.0 
0.002546 0.002663 0.0 
0.002413 0.002762 0.0 
0.002268 0.002842 0.0 
0.002113 0.002899 0.0 
0.001951 0.002935 0.0 
0.001621 0.002935 0.0 
0.001459 0.002899 0.0 
0.001304 0.002842 0.0 
0.001158 0.002762 0.0 
0.001026 0.002663 0.0 
0.000909 0.002546 0.0 
0.000809 0.002413 0.0 
0.000730 0.002268 0.0 
0.000672 0.002113 0.0 
0.000637 0.001951 0.0 
0.000637 0.001621 0.0 
0.000672 0.001459 0.0 
0.000730 0.001304 0.0 
0.000809 0.001158 0.0 
0.000909 0.001026 0.0 
0.001026 0.000909 0.0 
0.001158 0.000809 0.0 
0.001304 0.000730 0.0 
0.001459 0.000672 0.0 
0.001621 0.000637 0.0 
0.001951 0.000637 0.0 
0.002113 0.000672 0.0 
0.002268 0.000730 0.0 
0.002413 0.000809 0.0 
0.002546 0.000909 0.0 
0.002663 0.001026 0.0 
0.002762 0.001158 0.0 
0.002842 0.001304 0.0 
0.002899 0.001459 0.0 
0.002935 0.001621 0.0 
0.002935 0.001951 0.0 
0.002899 0.002113 0.0 
0.002842 0.002268 0.0 
0.002762 0.002413 0.0 
0.002663 0.002546 0.0 
0.002546 0.002663 0.0 
0.002413 0.002762 0.0 
0.002268 0.002842 0.0 
0.002113 0.002899 0.0 
0.001951 0.002935 0.0 
0.001621 0.002935 0.0 
0.001459 0.002899 0.0 
0.001304 0.002842 0.0 
0.001158 0.002762 0.0 
0.001026 0.002663 0.0 
0.000909 0.002546 0.0 
0.000809 0.002413 0.0 
0.000730 0.002268 0.0 
0.000672 0.002113 0.0 
0.000637 0.001951 0.0 
0.000637 0.001621 0.0 
0.000672 0.001459 0.0 
0.000730 0.001304 0.0 
0.000809 0.001158 0.0 
0.000909 0.001026 0.0 
0.001026 0.000909 0.0 
0.001158 0.000809 0.0 
0.001304 0.000730 0.0 
0.001459 0.000672 0.0 
0.001621 0.000637 0.0 
0.001951 0.000637 0.0 
0.002113 0.000672 0.0 
0.002268 0.000730 0.0 
0.002413 0.000809 0.0 
0.002546 0.000909 0.0 
0.002663 0.001026 0.0 
0.002762 0.001158 0.0 
0.002842 0.001304 0.0 
0.002899 0.001459 0.0 
0.002935 0.001621 0.0 
0.000576 0.000561 0.0 
0.000561 0.002995 0.0 
0.003016 0.000561 0.0 
0.002995 0.003010 0.0 
0.000972 0.000422 0.0 
0.003149 0.000972 0.0 
0.000422 0.000972 0.0 
0.000972 0.003149 0.0 
0.000422 0.002599 0.0 
0.002599 0.000422 0.0 
0.002599 0.003149 0.0 
0.003149 0.002599 0.0 
0.001345 0.003238 0.0 
0.000334 0.001345 0.0 
0.003238 0.001345 0.0 
0.001345 0.000334 0.0 
0.003228 0.002235 0.0 
0.002235 0.000343 0.0 
0.000343 0.002235 0.0 
0.002235 0.003228 0.0 
0.000319 0.001716 0.0 
0.001716 0.003252 0.0 
0.003252 0.001716 0.0 
0.001716 0.000319 0.0 
0.000333 0.000333 0.0 
0.003239 0.000333 0.0 
0.000333 0.003239 0.0 
0.003239 0.003239 0.0 
0.000666 0.000847 0.0 
0.000847 0.002905 0.0 
0.002905 0.000847 0.0 
0.002905 0.002725 0.0 
0.000696 0.000289 0.0 
0.003274 0.000703 0.0 
0.000289 0.002875 0.0 
0.002875 0.003283 0.0 
0.000299 0.000707 0.0 
0.000707 0.003272 0.0 
0.002866 0.000302 0.0 
0.003272 0.002865 0.0 
0.000334 0.001967 0.0 
0.001967 0.003238 0.0 
0.003238 0.001967 0.0 
0.001967 0.000334 0.0 
0.000894 0.000677 0.0 
0.002677 0.000677 0.0 
0.000677 0.002677 0.0 
0.002677 0.002895 0.0 
0.001182 0.003041 0.0 
0.000530 0.001182 0.0 
0.003041 0.001182 0.0 
0.001163 0.000534 0.0 
0.003042 0.002385 0.0 
0.002420 0.000533 0.0 
0.000533 0.002420 0.0 
0.002420 0.003039 0.0 
0.003336 0.001166 0.0 
0.001166 0.003336 0.0 
0.001166 0.000235 0.0 
0.000235 0.001166 0.0 
0.003355 0.002446 0.0 
0.000217 0.002446 0.0 
0.002446 0.000217 0.0 
0.002446 0.003355 0.0 
0.001486 0.000449 0.0 
0.003122 0.001486 0.0 
0.001486 0.003122 0.0 
0.000449 0.001486 0.0 
0.001484 0.000212 0.0 
0.003359 0.001484 0.0 
0.001484 0.003359 0.0 
0.000212 0.001484 0.0 
0.000794 0.000519 0.0 
0.000519 0.002778 0.0 
0.002778 0.003052 0.0 
0.002781 0.000498 0.0 
0.000899 0.000221 0.0 
0.003350 0.000899 0.0 
0.000221 0.000899 0.0 
0.000899 0.003350 0.0 
0.000221 0.002673 0.0 
0.002673 0.003350 0.0 
0.003350 0.002673 0.0 
0.002673 0.000221 0.0 
0.000218 0.000515 0.0 
0.000515 0.003353 0.0 
0.003056 0.000219 0.0 
0.003353 0.003056 0.0 
0.000513 0.000221 0.0 
0.003349 0.000514 0.0 
0.000221 0.003059 0.0 
0.003059 0.003351 0.0 
0.003088 0.000788 0.0 
0.000485 0.000788 0.0 
0.000788 0.003087 0.0 
0.003087 0.002783 0.0 
0.003359 0.002113 0.0 
0.002113 0.000212 0.0 
0.000212 0.002113 0.0 
0.002113 0.003359 0.0 
0.000200 0.001835 0.0 
0.003371 0.001835 0.0 
0.001835 0.003371 0.0 
0.001835 0.000200 0.0 
0.001032 0.002910 0.0 
0.000662 0.001032 0.0 
0.002910 0.002540 0.0 
0.002910 0.001032 0.0 
0.000481 0.002107 0.0 
0.003090 0.002107 0.0 
0.002107 0.003090 0.0 
0.002107 0.000481 0.0 
0.000195 0.000195 0.0 
0.003377 0.000195 0.0 
0.000195 0.003377 0.0 
0.003377 0.003377 0.0 
0.000441 0.001813 0.0 
0.001813 0.003131 0.0 
0.003131 0.001813 0.0 
0.001813 0.000441 0.0 
0.000506 0.000395 0.0 
0.003177 0.000506 0.0 
0.000395 0.003065 0.0 
0.003065 0.003177 0.0 
0.002715 0.000848 0.0 
0.000856 0.000848 0.0 
0.000848 0.002715 0.0 
0.002715 0.002723 0.0 
0.003036 0.001345 0.0 
0.001341 0.000536 0.0 
0.001345 0.003036 0.0 
0.000535 0.001345 0.0 
0.000390 0.000535 0.0 
0.003037 0.000390 0.0 
0.000535 0.003181 0.0 
0.003181 0.003037 0.0 
0.001336 0.003432 0.0 
0.000139 0.001336 0.0 
0.003432 0.001336 0.0 
0.001336 0.000139 0.0 
0.000723 0.000676 0.0 
0.002857 0.000656 0.0 
0.000676 0.002848 0.0 
0.002848 0.002895 0.0 
0.002506 0.000664 0.0 
0.001064 0.000667 0.0 
0.000664 0.002506 0.0 
0.002506 0.002907 0.0 
0.003397 0.002286 0.0 
0.002286 0.000174 0.0 
0.000174 0.002286 0.0 
0.002286 0.003397 0.0 
0.002980 0.002260 0.0 
0.002238 0.000574 0.0 
0.000574 0.002238 0.0 
0.002238 0.002997 0.0 
0.000164 0.001642 0.0 
0.001642 0.003408 0.0 
0.003408 0.001642 0.0 
0.001642 0.000164 0.0 
0.001642 0.003090 0.0 
0.000481 0.001642 0.0 
0.001642 0.000481 0.0 
0.003090 0.001642 0.0 
0.000161 0.000353 0.0 
0.000353 0.003410 0.0 
0.003219 0.000161 0.0 
0.003410 0.003219 0.0 
0.000353 0.000161 0.0 
0.003410 0.000353 0.0 
0.000161 0.003219 0.0 
0.003219 0.003410 0.0 
0.001166 0.003193 0.0 
0.000378 0.001166 0.0 
0.003193 0.001166 0.0 
0.001165 0.000384 0.0 
0.003200 0.002417 0.0 
0.002406 0.000371 0.0 
0.000371 0.002406 0.0 
0.002406 0.003200 0.0 
0.000651 0.000132 0.0 
0.003431 0.000652 0.0 
0.000132 0.002920 0.0 
0.002920 0.003440 0.0 
0.000140 0.000653 0.0 
0.000653 0.003432 0.0 
0.002919 0.000142 0.0 
0.003432 0.002919 0.0 
0.000557 0.000930 0.0 
0.000930 0.003015 0.0 
0.003015 0.000930 0.0 
0.003015 0.002641 0.0 
0.000835 0.000363 0.0 
0.000363 0.002737 0.0 
0.002737 0.003208 0.0 
0.002723 0.000358 0.0 
0.001946 0.003079 0.0 
0.000493 0.001946 0.0 
0.003079 0.001946 0.0 
0.001946 0.000493 0.0 
0.003216 0.000842 0.0 
0.000356 0.000842 0.0 
0.000842 0.003216 0.0 
0.003216 0.002729 0.0 
0.000662 0.001178 0.0 
0.001178 0.002910 0.0 
0.002907 0.002395 0.0 
0.002910 0.001178 0.0 
0.003117 0.000646 0.0 
0.000655 0.000431 0.0 
0.000431 0.002917 0.0 
0.002917 0.003141 0.0 
0.001976 0.003427 0.0 
0.000144 0.001976 0.0 
0.003427 0.001976 0.0 
0.001976 0.000144 0.0 
0.000977 0.000564 0.0 
0.002599 0.000561 0.0 
0.000563 0.002596 0.0 
0.002596 0.003009 0.0 
0.000126 0.000784 0.0 
0.000784 0.003445 0.0 
0.000782 0.000124 0.0 
0.003445 0.000783 0.0 
0.002788 0.000127 0.0 
0.003445 0.002788 0.0 
0.000124 0.002789 0.0 
0.002789 0.003447 0.0 
0.000140 0.002546 0.0 
0.002546 0.003432 0.0 
0.001032 0.000143 0.0 
0.003428 0.001032 0.0 
0.002546 0.000140 0.0 
0.003432 0.002546 0.0 
0.001032 0.003428 0.0 
0.000143 0.001032 0.0 
0.000994 0.000779 0.0 
0.002580 0.000778 0.0 
0.000778 0.002580 0.0 
0.002580 0.002793 0.0 
0.002788 0.000972 0.0 
0.000784 0.000972 0.0 
0.000972 0.002788 0.0 
0.002788 0.002600 0.0 
0.003229 0.002105 0.0 
0.002105 0.000342 0.0 
0.000342 0.002105 0.0 
0.002105 0.003229 0.0 
0.002411 0.003467 0.0 
0.000104 0.002411 0.0 
0.001171 0.000103 0.0 
0.003468 0.001171 0.0 
0.003467 0.002411 0.0 
0.002411 0.000104 0.0 
0.001171 0.003468 0.0 
0.000103 0.001171 0.0 
0.000463 0.000650 0.0 
[...]
<PointData  Scalars="DataArray"> 
<DataArray  type="Float64"  Name="u" NumberOfComponents="1" format="ascii"> 
 90.02275278   
110.02275278   
110.02275278   
 90.02275278   
109.38801214   
 99.97414724   
 90.55440523   
 99.97398203   
109.38801214   
 99.97414724   
 90.55440523   
 99.97398203   
 90.76475238   
 91.52294965   
 92.31927491   
 93.16705069   
 94.09706781   
 95.10162254   
 96.21093062   
 97.41094550   
 98.68020056   
 99.99612547   
101.31259397   
102.58710224   
103.79514268   
104.91179082   
105.92409985   
106.86133877   
107.71632675   
108.51764069   
109.27964880   
 90.76475238   
 91.52294965   
 92.31927491   
 93.16705069   
 94.09706781   
 95.10162254   
 96.21093062   
 97.41094550   
 98.68020056   
 99.99612547   
101.31259397   
102.58710224   
103.79514268   
104.91179082   
105.92409985   
106.86133877   
107.71632675   
108.51764069   
109.27964880   
 90.02216966   
 90.02016754   
 90.01752159   
 90.01394130   
 90.01022459   
 90.00592109   
 90.00205628   
 89.99884413   
 89.99668863   
 89.99612837   
 89.99657237   
 89.99887669   
 90.00175492   
 90.00556558   
 90.01022385   
 90.01457533   
 90.01799096   
 90.02039692   
 90.02222545   
110.02216966   
110.02016754   
110.01752159   
110.01394130   
110.01022459   
110.00592109   
110.00205628   
109.99884413   
109.99668863   
109.99612837   
109.99657237   
109.99887669   
110.00175492   
110.00556558   
110.01022385   
110.01457533   
110.01799096   
110.02039692   
110.02222545   
109.32135250   
109.11782631   
108.76336046   
108.22694062   
107.52661330   
106.64758786   
105.58225048   
104.35109933   
102.97380087   
101.51046410   
 98.44597497   
 96.95446036   
 95.60354836   
 94.36791825   
 93.30595460   
 92.42699808   
 91.72002241   
 91.18532343   
 90.82531131   
 90.62091546   
 90.61734752   
 90.83186593   
 91.19259801   
 91.72281752   
 92.42491294   
 93.30422221   
 94.36829222   
 95.60278876   
 96.95454826   
 98.44567241   
101.51051128   
102.97408027   
104.35105878   
105.58253816   
106.64710154   
107.52661868   
108.22787370   
108.75559081   
109.11319041   
109.32522414   
109.32135250   
109.11782631   
108.76336046   
108.22694062   
107.52661330   
106.64758786   
105.58225048   
104.35109933   
102.97380087   
101.51046410   
 98.44597497   
 96.95446036   
 95.60354836   
 94.36791825   
 93.30595460   
 92.42699808   
 91.72002241   
 91.18532343   
 90.82531131   
 90.62091546   
 90.61734752   
 90.83186593   
 91.19259801   
 91.72281752   
 92.42491294   
 93.30422221   
 94.36829222   
 95.60278876   
 96.95454826   
 98.44567241   
101.51051128   
102.97408027   
104.35105878   
105.58253816   
106.64710154   
107.52661868   
108.22787370   
108.75559081   
109.11319041   
109.32522414   
 92.19582304   
 92.12085807   
107.90856662   
107.82288272   
 94.25207043   
108.84437903   
 91.15908665   
 94.25188875   
 91.15826823   
105.75186060   
105.75144392   
108.84511643   
 96.68422494   
 90.58274221   
109.40636827   
 96.68390709   
109.37844849   
103.37994978   
 90.60957932   
103.37986683   
 90.39060697   
 99.44613959   
109.58941028   
 99.44604300   
 91.35393879   
108.68366126   
 91.35355899   
108.68311370   
 92.10600684   
 93.19974523   
107.88963793   
107.88807230   
 92.98126381   
109.00205953   
 90.99447282   
107.04321807   
 91.02419195   
 93.02588295   
107.00764280   
108.99959994   
 90.43257388   
101.40003847   
109.54800114   
101.40003899   
 93.39698421   
106.59372949   
 92.04599579   
106.59275700   
 95.30287091   
 91.12051636   
108.86087059   
 95.17055893   
108.86786873   
104.88099166   
 91.17865250   
104.88054119   
109.47744992   
 95.59155888   
 95.59156843   
 90.52526813   
109.49627343   
 90.50731170   
104.65325812   
104.65336889   
 97.57205287   
109.34921521   
 97.57226934   
 90.62378777   
 97.74628821   
109.66927683   
 97.74641391   
 90.32169631   
 93.20647906   
 91.68857304   
106.80178714   
106.78611362   
 94.05554696   
109.36340970   
 90.65336802   
 94.05558375   
 90.65285487   
105.96160376   
109.36377495   
105.96190812   
 90.83288247   
 92.18517403   
107.84978884   
109.20102071   
 92.17245299   
109.18500649   
 90.84357595   
107.86149734   
108.43345857   
 91.58001984   
 93.23304447   
108.43090915   
109.65915673   
102.42830557   
 90.33254787   
102.42828626   
 90.25359153   
109.73364496   
100.36541968   
100.36538605   
 94.12326273   
 91.70899931   
108.26997855   
108.27087466   
 90.67901482   
109.29284830   
102.60737079   
102.60747407   
 90.81733517   
109.22523985   
 90.81735571   
109.22522220   
 90.48843773   
100.20849219   
109.47958842   
100.20840966   
 92.04983692   
108.51491453   
 91.51484259   
107.97931714   
107.16489692   
 92.81063051   
 92.75579317   
107.16639698   
109.08555549   
 96.36594208   
 96.39385953   
 90.88547324   
 91.47586680   
107.85379086   
 92.17458155   
108.55233595   
 96.75469994   
 90.25338315   
109.74558887   
 96.75462463   
 92.64856000   
107.36011292   
 92.37151325   
107.35409383   
105.67097558   
 94.28652602   
 91.64018524   
105.67066935   
109.66529513   
103.60272339   
 90.33419398   
103.60272361   
108.96329524   
103.73676806   
 90.94634619   
103.73659790   
 90.21741630   
 98.92312982   
109.77245795   
 98.92306761   
 98.77662999   
 90.54767923   
 98.77642999   
109.41718856   
 90.65650020   
 91.48665099   
108.55327758   
109.38337693   
 91.48671348   
109.38320250   
 90.65671963   
108.55317141   
 95.44155382   
 90.83443546   
109.16059638   
 95.43299661   
109.17020048   
104.54300299   
 90.81080991   
104.54290722   
 92.84181682   
109.52760396   
 90.47436817   
107.18820677   
 90.50083977   
 92.84743206   
107.18387049   
109.52901693   
 91.60604680   
 93.82154142   
108.39128647   
108.39069063   
 93.60228741   
 91.13394046   
106.41204944   
106.33507213   
101.33448980   
 90.56122848   
109.40242144   
101.33449813   
108.91112993   
 91.10327231   
 93.64774083   
108.91110842   
 91.37795205   
 94.96378121   
108.57838501   
108.58966112   
108.38959397   
 92.67453085   
 91.53548461   
107.34628481   
101.40756882   
 90.19942440   
109.79164839   
101.40756474   
 94.04700794   
105.96475555   
 91.54554137   
105.95339098   
 90.41353995   
 93.49862004   
 93.49299179   
109.61073519   
106.52693721   
109.61085879   
 90.40801641   
106.53158616   
 90.37003475   
105.21187679   
 94.83977970   
109.63466000   
105.21191044   
109.64177612   
 94.83979303   
 90.37750682   
 93.60341386   
106.37677989   
 92.13720461   
106.37685881   
107.76401655   
 92.20803964   
 93.48373258   
107.76380864   
109.47095993   
102.45027254   
 90.51255927   
102.45022137   
104.37961293   
 90.23688625   
 95.69388756   
109.77156253   
109.76907967   
104.37959036   
 95.69389731   
 90.23487288   
 91.65582643   
 92.61899288   
108.36375649   
104.86559898   
 95.07419779   
 91.33397023   
104.86537279   
 92.08525230   
 92.66954266   
107.95830114   
107.92450937   
107.39948933   
 90.44389697   
 98.18480776   
109.53813091   
 98.18465142   
 91.32208989   
 94.56519534   
108.66807194   
108.66812219   
109.58948287   
100.40795364   
 90.38998855   
100.40800377   
109.23467281   
 94.61869918   
 94.62874048   
 90.77346639   
 90.77046821   
105.43013021   
109.24048229   
105.41539433   
109.12750769   
103.90509383   
 90.85633102   
103.90491268   
 97.65783874   
 90.69235157   
109.26546393   
 97.65514638   
 90.43985945   
109.59313572   
 90.45135379   
109.60927395   
 97.99573723   
109.85787341   
 97.99578580   
 90.13642335   
 79.81861070   
 89.80067957   
 80.29165176   
 84.92343954   
 85.24066458   
 89.62331628   
 82.88967563   
 82.34125698   
 91.90835921   
 95.31582665   
 92.50784072   
 83.25039836   
 79.20490800   
 79.13926017   
 87.34957016   
 83.91542107   
 83.62641021   
 87.12040641   
 84.30074049   
 82.52749680   
 96.31318371   
 91.58450726   
 92.72739211   
 98.48742143   
 97.37440438   
 84.29219491   
 98.57540721   
 80.76816531   
 81.89388220   
 90.87771152   
 86.20326870   
 86.99025395   
 85.62729004   
 87.85428012   
 82.32317572   
 80.61722324   
 80.35062312   
 92.31139055   
 87.33392377   
 89.35014626   
 88.34232451   
 98.33334798   
 96.70893995   
 80.64270036   
 86.23131443   
 96.86768739   
101.10278053   
 98.74181692   
101.39407479   
 78.88737221   
 86.20895210   
 86.01600024   
 83.92101795   
 85.07664859   
 88.90223735   
 92.68581218   
101.11395732   
 81.73910929   
 78.82113903   
101.34706750   
 81.81745740   
 82.32404088   
 91.55548322   
 88.03053475   
 87.32806601   
 89.56535464   
 86.88699337   
 90.44709768   
 79.21695352   
 84.32907289   
 81.96879327   
 81.85477332   
 86.53923743   
 80.49384481   
 90.94850722   
 92.26198141   
 88.80286712   
 93.67531523   
 94.14266179   
 94.59197483   
 82.79635198   
 80.73645201   
 85.23794060   
 82.39893226   
 82.83594282   
 84.34948562   
 94.53476374   
 91.84294203   
101.02077099   
 96.80196326   
 95.40813349   
 80.77412659   
 89.32502997   
 88.52595749   
 88.01532645   
 90.13273202   
 84.09028371   
103.54418169   
 99.91604067   
102.70569118   
 97.48495018   
 87.97502243   
103.75470339   
 88.80723459   
 85.46342496   
 84.63924443   
100.22501847   
 80.54675605   
 82.10921576   
 79.42989977   
 79.20846418   
103.64491436   
 87.68770564   
 87.37989147   
 93.78839373   
 96.28842157   
 80.09824295   
 96.47831525   
 88.90299900   
 90.29304651   
 88.31601637   
 91.32107812   
 86.19522092   
 92.62831179   
102.51398593   
104.17033882   
 90.98962382   
 85.56095088   
 87.12157472   
 95.15006943   
 84.14316991   
102.32859932   
 88.88750928   
 95.72395338   
 80.49613781   
 92.27344485   
 86.73731877   
104.05032884   
 81.70793026   
 81.47237721   
 80.83557128   
 89.13088397   
 94.73491890   
 85.20132499   
 87.54904523   
 88.58611859   
 90.66975011   
 91.24127988   
 84.45841504   
 84.89278957   
 86.91638907   
 87.40218647   
 79.75801075   
 82.40606211   
 95.42896343   
 79.52965249   
 81.42820145   
 82.86549906   
 87.62556323   
 87.51831670   
 79.94288578   
 82.39638724   
 78.77892573   
 95.28601119   
 90.09014647   
102.58218256   
100.32495259   
 99.28078662   
 95.89249559   
 83.87101645   
 84.07246413   
 83.94969258   
 92.14147468   
 80.57900867   
 80.42012134   
 82.32940232   
 93.27627894   
 92.84341860   
 86.65188145   
</DataArray> 
</PointData> 
</Piece> 
</UnstructuredGrid> 
</VTKFile> 
