<VTKFile type="UnstructuredGrid"  version="0.1"   > 
<UnstructuredGrid> 
<Piece  NumberOfPoints="  854" NumberOfCells=" 1520"> 
<Points> 
<DataArray  type="Float64"  NumberOfComponents="3"  format="ascii" > 
0.000000 0.000000 0.0 
0.010000 0.000000 0.0 
0.010000 0.010000 0.0 
0.000000 0.010000 0.0 
0.008478 0.005000 0.0 
0.005000 0.008478 0.0 
0.001522 0.005000 0.0 
0.005000 0.001522 0.0 
0.000333 0.000000 0.0 
0.000667 0.000000 0.0 
0.001000 0.000000 0.0 
0.001333 0.000000 0.0 
0.001667 0.000000 0.0 
0.002000 0.000000 0.0 
0.002333 0.000000 0.0 
0.002667 0.000000 0.0 
0.003000 0.000000 0.0 
0.003333 0.000000 0.0 
0.003667 0.000000 0.0 
0.004000 0.000000 0.0 
0.004333 0.000000 0.0 
0.004667 0.000000 0.0 
0.005000 0.000000 0.0 
0.005333 0.000000 0.0 
0.005667 0.000000 0.0 
0.006000 0.000000 0.0 
0.006333 0.000000 0.0 
0.006667 0.000000 0.0 
0.007000 0.000000 0.0 
0.007333 0.000000 0.0 
0.007667 0.000000 0.0 
0.008000 0.000000 0.0 
0.008333 0.000000 0.0 
0.008667 0.000000 0.0 
0.009000 0.000000 0.0 
0.009333 0.000000 0.0 
0.009667 0.000000 0.0 
0.000333 0.010000 0.0 
0.000667 0.010000 0.0 
0.001000 0.010000 0.0 
0.001333 0.010000 0.0 
0.001667 0.010000 0.0 
0.002000 0.010000 0.0 
0.002333 0.010000 0.0 
0.002667 0.010000 0.0 
0.003000 0.010000 0.0 
0.003333 0.010000 0.0 
0.003667 0.010000 0.0 
0.004000 0.010000 0.0 
0.004333 0.010000 0.0 
0.004667 0.010000 0.0 
0.005000 0.010000 0.0 
0.005333 0.010000 0.0 
0.005667 0.010000 0.0 
0.006000 0.010000 0.0 
0.006333 0.010000 0.0 
0.006667 0.010000 0.0 
0.007000 0.010000 0.0 
0.007333 0.010000 0.0 
0.007667 0.010000 0.0 
0.008000 0.010000 0.0 
0.008333 0.010000 0.0 
0.008667 0.010000 0.0 
0.009000 0.010000 0.0 
0.009333 0.010000 0.0 
0.009667 0.010000 0.0 
0.000000 0.000333 0.0 
0.000000 0.000667 0.0 
0.000000 0.001000 0.0 
0.000000 0.001333 0.0 
0.000000 0.001667 0.0 
0.000000 0.002000 0.0 
0.000000 0.002333 0.0 
0.000000 0.002667 0.0 
0.000000 0.003000 0.0 
0.000000 0.003333 0.0 
0.000000 0.003667 0.0 
0.000000 0.004000 0.0 
0.000000 0.004333 0.0 
0.000000 0.004667 0.0 
0.000000 0.005000 0.0 
0.000000 0.005333 0.0 
0.000000 0.005667 0.0 
0.000000 0.006000 0.0 
0.000000 0.006333 0.0 
0.000000 0.006667 0.0 
0.000000 0.007000 0.0 
0.000000 0.007333 0.0 
0.000000 0.007667 0.0 
0.000000 0.008000 0.0 
0.000000 0.008333 0.0 
0.000000 0.008667 0.0 
0.000000 0.009000 0.0 
0.000000 0.009333 0.0 
0.000000 0.009667 0.0 
0.010000 0.000333 0.0 
0.010000 0.000667 0.0 
0.010000 0.001000 0.0 
0.010000 0.001333 0.0 
0.010000 0.001667 0.0 
0.010000 0.002000 0.0 
0.010000 0.002333 0.0 
0.010000 0.002667 0.0 
0.010000 0.003000 0.0 
0.010000 0.003333 0.0 
0.010000 0.003667 0.0 
0.010000 0.004000 0.0 
0.010000 0.004333 0.0 
0.010000 0.004667 0.0 
0.010000 0.005000 0.0 
0.010000 0.005333 0.0 
0.010000 0.005667 0.0 
0.010000 0.006000 0.0 
0.010000 0.006333 0.0 
0.010000 0.006667 0.0 
0.010000 0.007000 0.0 
0.010000 0.007333 0.0 
0.010000 0.007667 0.0 
0.010000 0.008000 0.0 
0.010000 0.008333 0.0 
0.010000 0.008667 0.0 
0.010000 0.009000 0.0 
0.010000 0.009333 0.0 
0.010000 0.009667 0.0 
0.008463 0.005321 0.0 
0.008419 0.005639 0.0 
0.008345 0.005952 0.0 
0.008243 0.006256 0.0 
0.008113 0.006550 0.0 
0.007957 0.006831 0.0 
0.007776 0.007096 0.0 
0.007570 0.007343 0.0 
0.007343 0.007570 0.0 
0.007096 0.007776 0.0 
0.006831 0.007957 0.0 
0.006550 0.008113 0.0 
0.006256 0.008243 0.0 
0.005952 0.008345 0.0 
0.005639 0.008419 0.0 
0.005321 0.008463 0.0 
0.004679 0.008463 0.0 
0.004361 0.008419 0.0 
0.004048 0.008345 0.0 
0.003744 0.008243 0.0 
0.003450 0.008113 0.0 
0.003169 0.007957 0.0 
0.002904 0.007776 0.0 
0.002657 0.007570 0.0 
0.002430 0.007343 0.0 
0.002224 0.007096 0.0 
0.002043 0.006831 0.0 
0.001887 0.006550 0.0 
0.001757 0.006256 0.0 
0.001655 0.005952 0.0 
0.001581 0.005639 0.0 
0.001537 0.005321 0.0 
0.001537 0.004679 0.0 
0.001581 0.004361 0.0 
0.001655 0.004048 0.0 
0.001757 0.003744 0.0 
0.001887 0.003450 0.0 
0.002043 0.003169 0.0 
0.002224 0.002904 0.0 
0.002430 0.002657 0.0 
0.002657 0.002430 0.0 
0.002904 0.002224 0.0 
0.003169 0.002043 0.0 
0.003450 0.001887 0.0 
0.003744 0.001757 0.0 
0.004048 0.001655 0.0 
0.004361 0.001581 0.0 
0.004679 0.001537 0.0 
0.005321 0.001537 0.0 
0.005639 0.001581 0.0 
0.005952 0.001655 0.0 
0.006256 0.001757 0.0 
0.006550 0.001887 0.0 
0.006831 0.002043 0.0 
0.007096 0.002224 0.0 
0.007343 0.002430 0.0 
0.007570 0.002657 0.0 
0.007776 0.002904 0.0 
0.007957 0.003169 0.0 
0.008113 0.003450 0.0 
0.008243 0.003744 0.0 
0.008345 0.004048 0.0 
0.008419 0.004361 0.0 
0.008463 0.004679 0.0 
0.001490 0.001490 0.0 
0.001486 0.008499 0.0 
0.008510 0.001490 0.0 
0.008499 0.008514 0.0 
0.002556 0.001113 0.0 
0.008887 0.002556 0.0 
0.001078 0.007478 0.0 
0.007478 0.008922 0.0 
0.001078 0.002522 0.0 
0.002556 0.008887 0.0 
0.007478 0.001078 0.0 
0.008887 0.007444 0.0 
0.003429 0.009096 0.0 
0.000904 0.003429 0.0 
0.003429 0.000904 0.0 
0.009096 0.003429 0.0 
0.009096 0.006571 0.0 
0.006571 0.000904 0.0 
0.006571 0.009096 0.0 
0.000904 0.006571 0.0 
0.000875 0.000891 0.0 
0.009109 0.000875 0.0 
0.000891 0.009125 0.0 
0.009125 0.009109 0.0 
0.004246 0.009213 0.0 
0.009213 0.005754 0.0 
0.000787 0.004246 0.0 
0.004246 0.000787 0.0 
0.005778 0.009207 0.0 
0.009207 0.004222 0.0 
0.005778 0.000793 0.0 
0.000793 0.005778 0.0 
0.001833 0.000768 0.0 
0.009232 0.001833 0.0 
0.000789 0.001857 0.0 
0.000782 0.008166 0.0 
0.001838 0.009240 0.0 
0.008166 0.009218 0.0 
0.008143 0.000789 0.0 
0.009240 0.008162 0.0 
0.002197 0.001806 0.0 
0.008194 0.002197 0.0 
0.002197 0.008194 0.0 
0.008194 0.007803 0.0 
0.000761 0.004983 0.0 
0.004983 0.009239 0.0 
0.004983 0.000761 0.0 
0.009239 0.005017 0.0 
0.007664 0.001746 0.0 
0.001746 0.002336 0.0 
0.001746 0.007664 0.0 
0.007664 0.008254 0.0 
0.003075 0.008621 0.0 
0.001386 0.003133 0.0 
0.008621 0.003075 0.0 
0.003075 0.001379 0.0 
0.008621 0.006925 0.0 
0.006867 0.001386 0.0 
0.001386 0.006867 0.0 
0.006867 0.008614 0.0 
0.009444 0.002862 0.0 
0.002862 0.000556 0.0 
0.000605 0.007108 0.0 
0.007108 0.009395 0.0 
0.002862 0.009444 0.0 
0.000605 0.002892 0.0 
0.007108 0.000605 0.0 
0.009444 0.007138 0.0 
0.001348 0.007980 0.0 
0.007980 0.008652 0.0 
0.001336 0.002029 0.0 
0.007971 0.001336 0.0 
0.009445 0.002339 0.0 
0.002339 0.000555 0.0 
0.000531 0.007648 0.0 
0.007648 0.009469 0.0 
0.000531 0.002352 0.0 
0.002339 0.009445 0.0 
0.007648 0.000531 0.0 
0.009445 0.007661 0.0 
0.002025 0.001286 0.0 
0.008714 0.002025 0.0 
0.002025 0.008714 0.0 
0.008714 0.007975 0.0 
0.001285 0.009449 0.0 
0.000551 0.001285 0.0 
0.008715 0.000551 0.0 
0.009449 0.008715 0.0 
0.001321 0.000529 0.0 
0.009471 0.001321 0.0 
0.000529 0.008679 0.0 
0.008679 0.009471 0.0 
0.003758 0.009478 0.0 
0.000522 0.003758 0.0 
0.003758 0.000522 0.0 
0.009478 0.003758 0.0 
0.009478 0.006242 0.0 
0.006242 0.000522 0.0 
0.006242 0.009478 0.0 
0.000522 0.006242 0.0 
0.003871 0.008830 0.0 
0.008830 0.006129 0.0 
0.001170 0.003871 0.0 
0.006129 0.001170 0.0 
0.003871 0.001170 0.0 
0.006129 0.008830 0.0 
0.008830 0.003871 0.0 
0.001170 0.006129 0.0 
0.002708 0.008277 0.0 
0.008277 0.007292 0.0 
0.002708 0.001723 0.0 
0.008277 0.002708 0.0 
0.000486 0.000541 0.0 
0.009459 0.000486 0.0 
0.000541 0.009514 0.0 
0.009514 0.009459 0.0 
0.000549 0.005403 0.0 
0.009451 0.004597 0.0 
0.005403 0.009451 0.0 
0.005403 0.000549 0.0 
0.005369 0.001054 0.0 
0.001054 0.005369 0.0 
0.005369 0.008946 0.0 
0.008946 0.004631 0.0 
0.004610 0.000482 0.0 
0.000482 0.004610 0.0 
0.009518 0.005390 0.0 
0.004610 0.009518 0.0 
0.001064 0.004629 0.0 
0.004629 0.008936 0.0 
0.008936 0.005371 0.0 
0.004629 0.001064 0.0 
0.008985 0.001339 0.0 
0.001339 0.001015 0.0 
0.001018 0.008659 0.0 
0.008659 0.008982 0.0 
0.001039 0.001412 0.0 
0.001399 0.008973 0.0 
0.008588 0.001039 0.0 
0.008973 0.008601 0.0 
0.007743 0.002221 0.0 
0.002221 0.002257 0.0 
0.002221 0.007743 0.0 
0.007743 0.007779 0.0 
0.003325 0.009541 0.0 
0.000459 0.003325 0.0 
0.003325 0.000459 0.0 
0.009541 0.003325 0.0 
0.009541 0.006675 0.0 
0.006675 0.000459 0.0 
0.006675 0.009541 0.0 
0.000459 0.006675 0.0 
0.001750 0.002817 0.0 
0.007183 0.001750 0.0 
0.007183 0.008250 0.0 
0.001750 0.007183 0.0 
0.001751 0.008144 0.0 
0.008144 0.008249 0.0 
0.008144 0.001751 0.0 
0.001751 0.001856 0.0 
0.008601 0.006492 0.0 
0.006492 0.001399 0.0 
0.003508 0.008601 0.0 
0.006492 0.008601 0.0 
0.001399 0.006492 0.0 
0.001399 0.003508 0.0 
0.003508 0.001399 0.0 
0.008601 0.003508 0.0 
0.000426 0.000902 0.0 
0.009098 0.000426 0.0 
0.000902 0.009574 0.0 
0.009574 0.009098 0.0 
0.000952 0.000418 0.0 
0.000418 0.009048 0.0 
0.009582 0.000952 0.0 
0.009048 0.009582 0.0 
0.001001 0.006926 0.0 
0.006926 0.008999 0.0 
0.008989 0.003066 0.0 
0.003066 0.001011 0.0 
0.008989 0.006934 0.0 
0.003066 0.008989 0.0 
0.006926 0.001001 0.0 
0.001001 0.003074 0.0 
0.000309 0.005832 0.0 
0.005832 0.009691 0.0 
0.009691 0.005834 0.0 
0.005832 0.000309 0.0 
0.009691 0.004168 0.0 
0.004166 0.000309 0.0 
0.000309 0.004166 0.0 
0.004166 0.009691 0.0 
0.009631 0.001833 0.0 
0.001833 0.000369 0.0 
0.000354 0.008167 0.0 
0.008167 0.009646 0.0 
0.000369 0.001833 0.0 
0.001833 0.009631 0.0 
0.008167 0.000369 0.0 
0.009631 0.008167 0.0 
0.005730 0.001136 0.0 
0.008864 0.004270 0.0 
0.001136 0.005730 0.0 
0.005730 0.008864 0.0 
0.000967 0.002176 0.0 
0.000967 0.007824 0.0 
0.007824 0.009033 0.0 
0.007824 0.000967 0.0 
0.009072 0.002194 0.0 
0.002194 0.000928 0.0 
0.002200 0.009082 0.0 
0.009082 0.007800 0.0 
0.002444 0.001519 0.0 
0.008481 0.002444 0.0 
0.002444 0.008481 0.0 
0.008481 0.007556 0.0 
0.004256 0.008791 0.0 
0.001209 0.004256 0.0 
0.008791 0.005744 0.0 
0.004256 0.001209 0.0 
0.001156 0.008335 0.0 
0.008335 0.008844 0.0 
0.004999 0.001141 0.0 
0.001141 0.004999 0.0 
0.008859 0.005001 0.0 
0.004999 0.008859 0.0 
0.000356 0.005012 0.0 
0.005012 0.009644 0.0 
0.005012 0.000356 0.0 
0.009644 0.004988 0.0 
0.001655 0.001154 0.0 
0.008846 0.001655 0.0 
0.001482 0.007422 0.0 
0.007422 0.008518 0.0 
0.007422 0.001482 0.0 
0.001482 0.002578 0.0 
0.002553 0.007909 0.0 
[...]
<PointData  Scalars="DataArray"> 
<DataArray  type="Float64"  Name="u" NumberOfComponents="1" format="ascii"> 
 -0.00000608   
  0.00000608   
  0.00000608   
 -0.00000608   
  0.00000000   
  0.00000000   
  0.00000000   
 -0.00000000   
  0.00000000   
 -0.00000000   
  0.00000000   
  0.00000000   
  0.00000000   
 -0.00000000   
 -0.00000000   
  0.00000000   
  0.00000000   
  0.00000000   
 -0.00000000   
 -0.00000000   
 -0.00000000   
  0.00000000   
  0.00000000   
  0.00000000   
  0.00000000   
  0.00000000   
  0.00000000   
  0.00000000   
  0.00000000   
 -0.00000000   
 -0.00000000   
 -0.00000000   
  0.00000000   
 -0.00000000   
  0.00000000   
 -0.00000000   
  0.00000000   
 -0.00000000   
  0.00000000   
 -0.00000000   
 -0.00000000   
 -0.00000000   
  0.00000000   
  0.00000000   
 -0.00000000   
 -0.00000000   
 -0.00000000   
  0.00000000   
  0.00000000   
  0.00000000   
 -0.00000000   
 -0.00000000   
 -0.00000000   
 -0.00000000   
 -0.00000000   
 -0.00000000   
 -0.00000000   
 -0.00000000   
  0.00000000   
  0.00000000   
  0.00000000   
 -0.00000000   
  0.00000000   
 -0.00000000   
  0.00000000   
 -0.00000000   
 -0.00001207   
 -0.00001185   
 -0.00001139   
 -0.00001091   
 -0.00001027   
 -0.00000934   
 -0.00000850   
 -0.00000748   
 -0.00000657   
 -0.00000560   
 -0.00000466   
 -0.00000396   
 -0.00000333   
 -0.00000299   
 -0.00000287   
 -0.00000299   
 -0.00000333   
 -0.00000396   
 -0.00000466   
 -0.00000560   
 -0.00000657   
 -0.00000748   
 -0.00000850   
 -0.00000935   
 -0.00001027   
 -0.00001091   
 -0.00001139   
 -0.00001185   
 -0.00001207   
  0.00001207   
  0.00001185   
  0.00001139   
  0.00001091   
  0.00001027   
  0.00000934   
  0.00000850   
  0.00000748   
  0.00000657   
  0.00000560   
  0.00000466   
  0.00000396   
  0.00000333   
  0.00000299   
  0.00000287   
  0.00000299   
  0.00000333   
  0.00000396   
  0.00000466   
  0.00000560   
  0.00000657   
  0.00000748   
  0.00000850   
  0.00000935   
  0.00001027   
  0.00001091   
  0.00001139   
  0.00001185   
  0.00001207   
 -0.00000000   
 -0.00000000   
 -0.00000000   
  0.00000000   
  0.00000000   
 -0.00000000   
 -0.00000000   
  0.00000000   
  0.00000000   
 -0.00000000   
  0.00000000   
 -0.00000000   
  0.00000000   
 -0.00000000   
 -0.00000000   
  0.00000000   
 -0.00000000   
  0.00000000   
 -0.00000000   
  0.00000000   
 -0.00000000   
  0.00000000   
  0.00000000   
  0.00000000   
  0.00000000   
 -0.00000000   
  0.00000000   
 -0.00000000   
  0.00000000   
  0.00000000   
 -0.00000000   
 -0.00000000   
 -0.00000000   
 -0.00000000   
  0.00000000   
 -0.00000000   
  0.00000000   
 -0.00000000   
  0.00000000   
 -0.00000000   
  0.00000000   
  0.00000000   
 -0.00000000   
  0.00000000   
  0.00000000   
  0.00000000   
  0.00000000   
  0.00000000   
 -0.00000000   
  0.00000000   
 -0.00000000   
  0.00000000   
  0.00000000   
  0.00000000   
 -0.00000000   
 -0.00000000   
 -0.00000000   
  0.00000000   
  0.00000000   
 -0.00000000   
  0.00000000   
  0.00000000   
 -0.00000000   
  0.00000000   
  0.00000000   
  0.00000000   
 -0.00000000   
 -0.00000000   
  0.00000000   
  0.00000000   
 -0.00000000   
  0.00000000   
  0.00000000   
 -0.00000000   
  0.00000000   
  0.00000000   
  0.00000000   
  0.00000000   
  0.00000000   
 -0.00000000   
  0.00000000   
  0.00000000   
  0.00000000   
 -0.00000000   
  0.00000000   
  0.00000000   
  0.00000000   
 -0.00000000   
  0.00000000   
  0.00000000   
  0.00000000   
 -0.00000000   
 -0.00000000   
  0.00000000   
 -0.00000000   
  0.00000000   
 -0.00000000   
  0.00000000   
 -0.00000000   
 -0.00000000   
 -0.00000000   
  0.00000000   
  0.00000000   
  0.00000000   
  0.00000000   
 -0.00000000   
  0.00000000   
  0.00000000   
 -0.00000000   
  0.00000000   
 -0.00000000   
  0.00000000   
  0.00000000   
 -0.00000000   
  0.00000000   
 -0.00000000   
 -0.00000000   
 -0.00000000   
  0.00000000   
 -0.00000000   
  0.00000000   
 -0.00000000   
  0.00000000   
  0.00000000   
 -0.00000000   
 -0.00000000   
 -0.00000000   
  0.00000000   
  0.00000000   
  0.00000000   
 -0.00000000   
 -0.00000000   
  0.00000000   
  0.00000000   
 -0.00000000   
 -0.00000000   
  0.00000000   
 -0.00000000   
 -0.00000000   
  0.00000000   
  0.00000000   
  0.00000000   
 -0.00000000   
 -0.00000000   
 -0.00000000   
 -0.00000000   
  0.00000000   
 -0.00000000   
  0.00000000   
 -0.00000000   
 -0.00000000   
 -0.00000000   
  0.00000000   
  0.00000000   
  0.00000000   
  0.00000000   
 -0.00000000   
  0.00000000   
 -0.00000000   
 -0.00000000   
  0.00000000   
 -0.00000000   
  0.00000000   
 -0.00000000   
  0.00000000   
 -0.00000000   
  0.00000000   
  0.00000000   
 -0.00000000   
 -0.00000000   
  0.00000000   
  0.00000000   
  0.00000000   
  0.00000000   
 -0.00000000   
 -0.00000000   
 -0.00000000   
 -0.00000000   
  0.00000000   
  0.00000000   
 -0.00000000   
 -0.00000000   
 -0.00000000   
  0.00000000   
  0.00000000   
  0.00000000   
  0.00000000   
  0.00000000   
  0.00000000   
 -0.00000000   
  0.00000000   
  0.00000000   
  0.00000000   
  0.00000000   
  0.00000000   
  0.00000000   
  0.00000000   
 -0.00000000   
  0.00000000   
  0.00000000   
 -0.00000000   
  0.00000000   
 -0.00000000   
 -0.00000000   
  0.00000000   
 -0.00000000   
  0.00000000   
  0.00000000   
  0.00000000   
  0.00000000   
  0.00000000   
 -0.00000000   
  0.00000000   
 -0.00000000   
  0.00000000   
  0.00000000   
  0.00000000   
 -0.00000000   
  0.00000000   
 -0.00000000   
 -0.00000000   
  0.00000000   
  0.00000000   
  0.00000000   
  0.00000000   
  0.00000000   
 -0.00000000   
 -0.00000000   
  0.00000000   
  0.00000000   
  0.00000000   
 -0.00000000   
  0.00000000   
 -0.00000000   
  0.00000000   
 -0.00000000   
  0.00000000   
 -0.00000000   
  0.00000000   
  0.00000000   
 -0.00000000   
 -0.00000000   
 -0.00000000   
 -0.00000000   
 -0.00000000   
  0.00000000   
  0.00000000   
  0.00000000   
 -0.00000000   
 -0.00000000   
 -0.00000000   
 -0.00000000   
  0.00000000   
 -0.00000000   
  0.00000000   
 -0.00000000   
 -0.00000000   
  0.00000000   
 -0.00000000   
  0.00000000   
 -0.00000000   
  0.00000000   
  0.00000000   
 -0.00000000   
 -0.00000000   
 -0.00000000   
  0.00000000   
  0.00000000   
  0.00000000   
  0.00000000   
  0.00000000   
 -0.00000000   
 -0.00000000   
 -0.00000000   
  0.00000000   
  0.00000000   
  0.00000000   
  0.00000000   
 -0.00000000   
 -0.00000000   
 -0.00000000   
  0.00000000   
  0.00000000   
 -0.00000000   
 -0.00000000   
 -0.00000000   
  0.00000000   
  0.00000000   
 -0.00000000   
  0.00000000   
  0.00000000   
 -0.00000000   
  0.00000000   
  0.00000000   
  0.00000000   
  0.00000000   
 -0.00000000   
 -0.00000000   
  0.00000000   
 -0.00000000   
 -0.00000000   
  0.00000000   
  0.00000000   
 -0.00000000   
 -0.00000000   
 -0.00000000   
 -0.00000000   
 -0.00000000   
  0.00000000   
 -0.00000000   
  0.00000000   
  0.00000000   
  0.00000000   
 -0.00000000   
  0.00000000   
 -0.00000000   
 -0.00000000   
  0.00000000   
  0.00000000   
  0.00000000   
 -0.00000000   
  0.00000000   
  0.00000000   
 -0.00000000   
 -0.00000000   
 -0.00000000   
 -0.00000000   
 -0.00000000   
 -0.00000000   
 -0.00000000   
 -0.00000000   
  0.00000000   
 -0.00000000   
  0.00000000   
  0.00000000   
 -0.00000000   
  0.00000000   
  0.00000000   
  0.00000000   
  0.00000000   
 -0.00000000   
 -0.00000000   
  0.00000000   
  0.00000000   
  0.00000000   
 -0.00000000   
  0.00000000   
 -0.00000000   
 -0.00000000   
  0.00000000   
 -0.00000000   
 -0.00000000   
  0.00000000   
  0.00000000   
 -0.00000000   
 -0.00000000   
 -0.00000000   
  0.00000000   
 -0.00000000   
  0.00000000   
  0.00000000   
 -0.00000000   
 -0.00000000   
  0.00000000   
  0.00000000   
  0.00000000   
 -0.00000000   
  0.00000000   
  0.00000000   
  0.00000000   
 -0.00000000   
  0.00000000   
  0.00000000   
  0.00000000   
 -0.00000000   
 -0.00000000   
 -0.00000000   
 -0.00000000   
  0.00000000   
 -0.00000000   
 -0.00000000   
 -0.00000000   
  0.00000000   
 -0.00000000   
 -0.00000000   
  0.00000000   
 -0.00000000   
  0.00000000   
  0.00000000   
 -0.00000000   
  0.00000000   
  0.00000000   
 -0.00000000   
  0.00000000   
  0.00000000   
  0.00000000   
  0.00000000   
 -0.00000000   
 -0.00000000   
 -0.00000000   
 -0.00000000   
 -0.00000000   
  0.00000000   
  0.00000000   
  0.00000000   
 -0.00000000   
  0.00000000   
  0.00000000   
  0.00000000   
 -0.00000000   
 -0.00000000   
 -0.00000000   
 -0.00000000   
 -0.00000000   
  0.00000000   
 -0.00000000   
  0.00000000   
  0.00000000   
 -0.00000000   
  0.00000000   
  0.00000000   
  0.00000000   
 -0.00000000   
 -0.00000000   
 -0.00000000   
  0.00000000   
 -0.00000000   
 -0.00000000   
 -0.00000000   
  0.00000000   
  0.00000000   
  0.00000000   
  0.00000000   
  0.00000000   
 -0.00000000   
  0.00000000   
 -0.00000000   
 -0.00000000   
  0.00000000   
 -0.00000000   
  0.00000000   
 -0.00000000   
 -0.00000000   
  0.00000000   
 -0.00000000   
  0.00000000   
 -0.00000000   
  0.00000000   
 -0.00000000   
 -0.00000000   
  0.00000000   
 -0.00000000   
 -0.00000000   
 -0.00000000   
  0.00000000   
 -0.00000000   
 -0.00000000   
 -0.00000000   
  0.00000000   
 -0.00000000   
  0.00000000   
 -0.00000000   
  0.00000000   
 -0.00000000   
  0.00000000   
  0.00000000   
  0.00000000   
  0.00000000   
  0.00000000   
  0.00000000   
 -0.00000000   
 -0.00000000   
 -0.00000000   
 -0.00000000   
 -0.00000000   
 -0.00000000   
  0.00000000   
 -0.00000000   
  0.00000000   
  0.00000000   
  0.00000000   
  0.00000000   
 -0.00000000   
 -0.00000000   
  0.00000000   
  0.00000000   
  0.00000000   
  0.00000000   
 -0.00000000   
 -0.00000000   
 -0.00000000   
 -0.00000000   
  0.00000000   
  0.00000000   
  0.00000000   
 -0.00000000   
 -0.00000000   
 -0.00000000   
  0.00000000   
  0.00000000   
 -0.00000000   
 -0.00000000   
 -0.00000000   
 -0.00000000   
  0.00000000   
  0.00000000   
 -0.00000000   
 -0.00000000   
  0.00000000   
  0.00000000   
 -0.00000000   
  0.00000000   
  0.00000000   
  0.00000000   
 -0.00000000   
  0.00000000   
 -0.00000000   
 -0.00000000   
  0.00000000   
  0.00000000   
 -0.00000000   
 -0.00000000   
 -0.00000000   
  0.00000000   
 -0.00000000   
 -0.00000000   
 -0.00000000   
  0.00000000   
 -0.00000000   
  0.00000000   
 -0.00000000   
 -0.00000000   
  0.00000000   
  0.00000000   
  0.00000000   
 -0.00000000   
 -0.00000000   
  0.00000000   
  0.00000000   
 -0.00000000   
  0.00000000   
 -0.00000000   
  0.00000000   
  0.00000000   
 -0.00000000   
 -0.00000000   
 -0.00000000   
  0.00000000   
  0.00000000   
  0.00000000   
 -0.00000000   
  0.00000000   
  0.00000000   
 -0.00000000   
  0.00000000   
  0.00000000   
 -0.00000000   
 -0.00000000   
 -0.00000000   
 -0.00000000   
 -0.00000000   
 -0.00000000   
 -0.00000000   
 -0.00000000   
  0.00000000   
 -0.00000000   
  0.00000000   
  0.00000000   
 -0.00000000   
 -0.00000000   
 -0.00000000   
 -0.00000000   
 -0.00000000   
 -0.00000000   
  0.00000000   
 -0.00000000   
 -0.00000000   
  0.00000000   
 -0.00000000   
  0.00000000   
 -0.00000000   
  0.00000000   
 -0.00000000   
 -0.00000000   
  0.00000000   
  0.00000000   
 -0.00000000   
 -0.00000000   
 -0.00000000   
  0.00000000   
 -0.00000000   
 -0.00000000   
  0.00000000   
  0.00000000   
 -0.00000000   
 -0.00000000   
  0.00000000   
 -0.00000000   
 -0.00000000   
  0.00000000   
  0.00000000   
 -0.00000000   
  0.00000000   
 -0.00000000   
  0.00000000   
  0.00000000   
 -0.00000000   
 -0.00000000   
  0.00000000   
 -0.00000000   
 -0.00000000   
  0.00000000   
 -0.00000000   
  0.00000000   
  0.00000000   
  0.00000000   
 -0.00000000   
 -0.00000000   
 -0.00000000   
  0.00000000   
  0.00000000   
 -0.00000000   
  0.00000000   
 -0.00000000   
 -0.00000000   
 -0.00000000   
 -0.00000000   
  0.00000000   
 -0.00000000   
 -0.00000000   
 -0.00000000   
 -0.00000000   
 -0.00000000   
 -0.00000000   
 -0.00000000   
  0.00000000   
  0.00000000   
 -0.00000000   
 -0.00000000   
  0.00000000   
 -0.00000000   
 -0.00000000   
  0.00000000   
 -0.00000000   
 -0.00000000   
  0.00000000   
  0.00000000   
 -0.00000000   
  0.00000000   
  0.00000000   
  0.00000000   
 -0.00000000   
  0.00000000   
 -0.00000000   
 -0.00000000   
 -0.00000000   
 -0.00000000   
 -0.00000000   
 -0.00000000   
 -0.00000000   
  0.00000000   
 -0.00000000   
 -0.00000000   
 -0.00000000   
 -0.00000000   
  0.00000000   
 -0.00000000   
  0.00000000   
 -0.00000000   
 -0.00000000   
 -0.00000000   
 -0.00000000   
 -0.00000000   
 -0.00000000   
 -0.00000000   
  0.00000000   
 -0.00000000   
  0.00000000   
  0.00000000   
 -0.00000000   
  0.00000000   
  0.00000000   
  0.00000000   
  0.00000000   
  0.00000000   
  0.00000000   
 -0.00000000   
  0.00000000   
 -0.00000000   
 -0.00000000   
 -0.00000000   
 -0.00000000   
 -0.00000000   
  0.00000000   
 -0.00000000   
  0.00000000   
 -0.00000000   
 -0.00000000   
  0.00000000   
 -0.00000000   
 -0.00000000   
 -0.00000000   
 -0.00000000   
 -0.00000000   
 -0.00000000   
  0.00000000   
 -0.00000000   
 -0.00000000   
  0.00000000   
 -0.00000000   
 -0.00000000   
  0.00000000   
 -0.00000000   
  0.00000000   
  0.00000000   
  0.00000000   
 -0.00000000   
  0.00000000   
 -0.00000000   
 -0.00000000   
 -0.00000000   
  0.00000000   
 -0.00000000   
  0.00000000   
  0.00000000   
  0.00000000   
  0.00000000   
 -0.00000000   
  0.00000000   
 -0.00000000   
</DataArray> 
</PointData> 
</Piece> 
</UnstructuredGrid> 
</VTKFile> 
