<VTKFile type="UnstructuredGrid"  version="0.1"   > 
<UnstructuredGrid> 
<Piece  NumberOfPoints="  608" NumberOfCells=" 1134"> 
<Points> 
<DataArray  type="Float64"  NumberOfComponents="3"  format="ascii" > 
0.000000 0.000000 0.0 
0.007143 0.000000 0.0 
0.007143 0.007143 0.0 
0.000000 0.007143 0.0 
0.005893 0.003571 0.0 
0.003571 0.005893 0.0 
0.001250 0.003571 0.0 
0.003571 0.001250 0.0 
0.000357 0.000000 0.0 
0.000714 0.000000 0.0 
0.001071 0.000000 0.0 
0.001429 0.000000 0.0 
0.001786 0.000000 0.0 
0.002143 0.000000 0.0 
0.002500 0.000000 0.0 
0.002857 0.000000 0.0 
0.003214 0.000000 0.0 
0.003571 0.000000 0.0 
0.003929 0.000000 0.0 
0.004286 0.000000 0.0 
0.004643 0.000000 0.0 
0.005000 0.000000 0.0 
0.005357 0.000000 0.0 
0.005714 0.000000 0.0 
0.006071 0.000000 0.0 
0.006429 0.000000 0.0 
0.006786 0.000000 0.0 
0.000357 0.007143 0.0 
0.000714 0.007143 0.0 
0.001071 0.007143 0.0 
0.001429 0.007143 0.0 
0.001786 0.007143 0.0 
0.002143 0.007143 0.0 
0.002500 0.007143 0.0 
0.002857 0.007143 0.0 
0.003214 0.007143 0.0 
0.003571 0.007143 0.0 
0.003929 0.007143 0.0 
0.004286 0.007143 0.0 
0.004643 0.007143 0.0 
0.005000 0.007143 0.0 
0.005357 0.007143 0.0 
0.005714 0.007143 0.0 
0.006071 0.007143 0.0 
0.006429 0.007143 0.0 
0.006786 0.007143 0.0 
0.000000 0.000357 0.0 
0.000000 0.000714 0.0 
0.000000 0.001071 0.0 
0.000000 0.001429 0.0 
0.000000 0.001786 0.0 
0.000000 0.002143 0.0 
0.000000 0.002500 0.0 
0.000000 0.002857 0.0 
0.000000 0.003214 0.0 
0.000000 0.003571 0.0 
0.000000 0.003929 0.0 
0.000000 0.004286 0.0 
0.000000 0.004643 0.0 
0.000000 0.005000 0.0 
0.000000 0.005357 0.0 
0.000000 0.005714 0.0 
0.000000 0.006071 0.0 
0.000000 0.006429 0.0 
0.000000 0.006786 0.0 
0.007143 0.000357 0.0 
0.007143 0.000714 0.0 
0.007143 0.001071 0.0 
0.007143 0.001429 0.0 
0.007143 0.001786 0.0 
0.007143 0.002143 0.0 
0.007143 0.002500 0.0 
0.007143 0.002857 0.0 
0.007143 0.003214 0.0 
0.007143 0.003571 0.0 
0.007143 0.003929 0.0 
0.007143 0.004286 0.0 
0.007143 0.004643 0.0 
0.007143 0.005000 0.0 
0.007143 0.005357 0.0 
0.007143 0.005714 0.0 
0.007143 0.006071 0.0 
0.007143 0.006429 0.0 
0.007143 0.006786 0.0 
0.005869 0.003902 0.0 
0.005799 0.004225 0.0 
0.005683 0.004536 0.0 
0.005524 0.004826 0.0 
0.005326 0.005092 0.0 
0.005092 0.005326 0.0 
0.004826 0.005524 0.0 
0.004536 0.005683 0.0 
0.004225 0.005799 0.0 
0.003902 0.005869 0.0 
0.003241 0.005869 0.0 
0.002917 0.005799 0.0 
0.002607 0.005683 0.0 
0.002316 0.005524 0.0 
0.002051 0.005326 0.0 
0.001817 0.005092 0.0 
0.001619 0.004826 0.0 
0.001460 0.004536 0.0 
0.001344 0.004225 0.0 
0.001274 0.003902 0.0 
0.001274 0.003241 0.0 
0.001344 0.002917 0.0 
0.001460 0.002607 0.0 
0.001619 0.002316 0.0 
0.001817 0.002051 0.0 
0.002051 0.001817 0.0 
0.002316 0.001619 0.0 
0.002607 0.001460 0.0 
0.002917 0.001344 0.0 
0.003241 0.001274 0.0 
0.003902 0.001274 0.0 
0.004225 0.001344 0.0 
0.004536 0.001460 0.0 
0.004826 0.001619 0.0 
0.005092 0.001817 0.0 
0.005326 0.002051 0.0 
0.005524 0.002316 0.0 
0.005683 0.002607 0.0 
0.005799 0.002917 0.0 
0.005869 0.003241 0.0 
0.001153 0.001122 0.0 
0.001122 0.005990 0.0 
0.006032 0.001121 0.0 
0.005990 0.006021 0.0 
0.001945 0.000844 0.0 
0.006299 0.001945 0.0 
0.000844 0.001945 0.0 
0.001945 0.006299 0.0 
0.000844 0.005198 0.0 
0.005198 0.000844 0.0 
0.005198 0.006299 0.0 
0.006299 0.005198 0.0 
0.002691 0.006476 0.0 
0.000667 0.002691 0.0 
0.006476 0.002691 0.0 
0.002691 0.000667 0.0 
0.006456 0.004470 0.0 
0.004470 0.000686 0.0 
0.000686 0.004470 0.0 
0.004470 0.006456 0.0 
0.000639 0.003432 0.0 
0.003432 0.006504 0.0 
0.006504 0.003432 0.0 
0.003432 0.000639 0.0 
0.000665 0.000665 0.0 
0.006477 0.000665 0.0 
0.000665 0.006477 0.0 
0.006477 0.006477 0.0 
0.001332 0.001694 0.0 
0.001694 0.005811 0.0 
0.005811 0.001694 0.0 
0.005811 0.005449 0.0 
0.001393 0.000577 0.0 
0.006547 0.001405 0.0 
0.000577 0.005750 0.0 
0.005750 0.006566 0.0 
0.000598 0.001414 0.0 
0.001414 0.006545 0.0 
0.005733 0.000603 0.0 
0.006545 0.005729 0.0 
0.000667 0.003934 0.0 
0.003934 0.006475 0.0 
0.006475 0.003934 0.0 
0.003934 0.000667 0.0 
0.001789 0.001353 0.0 
0.005354 0.001353 0.0 
0.001353 0.005354 0.0 
0.005354 0.005789 0.0 
0.002364 0.006082 0.0 
0.001061 0.002364 0.0 
0.006082 0.002364 0.0 
0.002325 0.001068 0.0 
0.006083 0.004771 0.0 
0.004841 0.001065 0.0 
0.001065 0.004841 0.0 
0.004841 0.006078 0.0 
0.006672 0.002333 0.0 
0.002333 0.006672 0.0 
0.002333 0.000470 0.0 
0.000470 0.002333 0.0 
0.006710 0.004892 0.0 
0.000433 0.004892 0.0 
0.004892 0.000433 0.0 
0.004892 0.006710 0.0 
0.002972 0.000899 0.0 
0.006244 0.002972 0.0 
0.002972 0.006244 0.0 
0.000899 0.002972 0.0 
0.002967 0.000425 0.0 
0.006718 0.002967 0.0 
0.002967 0.006718 0.0 
0.000425 0.002967 0.0 
0.001587 0.001038 0.0 
0.001038 0.005555 0.0 
0.005555 0.006105 0.0 
0.005562 0.000996 0.0 
0.001797 0.000442 0.0 
0.006701 0.001797 0.0 
0.000442 0.001797 0.0 
0.001797 0.006701 0.0 
0.000442 0.005346 0.0 
0.005346 0.006701 0.0 
0.006701 0.005346 0.0 
0.005346 0.000442 0.0 
0.000437 0.001031 0.0 
0.001031 0.006706 0.0 
0.006112 0.000437 0.0 
0.006706 0.006112 0.0 
0.001025 0.000441 0.0 
0.006698 0.001027 0.0 
0.000441 0.006117 0.0 
0.006117 0.006701 0.0 
0.006176 0.001576 0.0 
0.000969 0.001577 0.0 
0.001577 0.006174 0.0 
0.006174 0.005566 0.0 
0.006718 0.004226 0.0 
0.004226 0.000425 0.0 
0.000425 0.004226 0.0 
0.004226 0.006718 0.0 
0.000400 0.003670 0.0 
0.006742 0.003670 0.0 
0.003670 0.006742 0.0 
0.003670 0.000400 0.0 
0.002063 0.005819 0.0 
0.001324 0.002063 0.0 
0.005819 0.005080 0.0 
0.005819 0.002063 0.0 
0.000962 0.004214 0.0 
0.006181 0.004214 0.0 
0.004214 0.006181 0.0 
0.004214 0.000962 0.0 
0.000389 0.000389 0.0 
0.006754 0.000389 0.0 
0.000389 0.006754 0.0 
0.006754 0.006754 0.0 
0.000882 0.003626 0.0 
0.003626 0.006261 0.0 
0.006261 0.003626 0.0 
0.003626 0.000882 0.0 
0.001013 0.000790 0.0 
0.006353 0.001013 0.0 
0.000790 0.006130 0.0 
0.006130 0.006353 0.0 
0.005430 0.001696 0.0 
0.001713 0.001696 0.0 
0.001696 0.005430 0.0 
0.005430 0.005447 0.0 
0.006072 0.002690 0.0 
0.002683 0.001073 0.0 
0.002690 0.006072 0.0 
0.001070 0.002690 0.0 
0.000780 0.001069 0.0 
0.006074 0.000780 0.0 
0.001069 0.006363 0.0 
0.006363 0.006074 0.0 
0.002672 0.006865 0.0 
0.000278 0.002672 0.0 
0.006865 0.002672 0.0 
0.002672 0.000278 0.0 
0.001446 0.001352 0.0 
0.005714 0.001311 0.0 
0.001352 0.005696 0.0 
0.005696 0.005791 0.0 
0.005011 0.001328 0.0 
0.002127 0.001334 0.0 
0.001328 0.005011 0.0 
0.005011 0.005814 0.0 
0.006794 0.004573 0.0 
0.004573 0.000349 0.0 
0.000349 0.004573 0.0 
0.004573 0.006794 0.0 
0.005960 0.004520 0.0 
0.004475 0.001148 0.0 
0.001148 0.004475 0.0 
0.004475 0.005995 0.0 
0.000328 0.003285 0.0 
0.003285 0.006815 0.0 
0.006815 0.003285 0.0 
0.003285 0.000328 0.0 
0.003284 0.006181 0.0 
0.000962 0.003284 0.0 
0.003284 0.000962 0.0 
0.006181 0.003284 0.0 
0.000323 0.000705 0.0 
0.000705 0.006820 0.0 
0.006438 0.000323 0.0 
0.006820 0.006438 0.0 
0.000705 0.000323 0.0 
0.006820 0.000705 0.0 
0.000323 0.006438 0.0 
0.006438 0.006820 0.0 
0.002332 0.006386 0.0 
0.000757 0.002332 0.0 
0.006386 0.002332 0.0 
0.002331 0.000767 0.0 
0.006399 0.004834 0.0 
0.004812 0.000742 0.0 
0.000742 0.004812 0.0 
0.004812 0.006401 0.0 
0.001302 0.000264 0.0 
0.006863 0.001305 0.0 
0.000264 0.005840 0.0 
0.005840 0.006879 0.0 
0.000280 0.001306 0.0 
0.001306 0.006863 0.0 
0.005838 0.000284 0.0 
0.006863 0.005837 0.0 
0.001114 0.001861 0.0 
0.001861 0.006029 0.0 
0.006029 0.001861 0.0 
0.006029 0.005282 0.0 
0.001669 0.000727 0.0 
0.000727 0.005473 0.0 
0.005473 0.006416 0.0 
0.005446 0.000716 0.0 
0.000986 0.003893 0.0 
0.003893 0.006157 0.0 
0.006157 0.003893 0.0 
0.003893 0.000986 0.0 
0.006431 0.001684 0.0 
0.000712 0.001684 0.0 
0.001684 0.006431 0.0 
0.006431 0.005459 0.0 
0.001323 0.002355 0.0 
0.002355 0.005819 0.0 
0.005815 0.004790 0.0 
0.005819 0.002355 0.0 
0.006233 0.001293 0.0 
0.001310 0.000862 0.0 
0.000862 0.005833 0.0 
0.005833 0.006281 0.0 
0.003951 0.006854 0.0 
0.000289 0.003951 0.0 
0.006854 0.003951 0.0 
0.003951 0.000289 0.0 
0.001955 0.001128 0.0 
0.005197 0.001121 0.0 
0.001126 0.005192 0.0 
0.005192 0.006017 0.0 
0.000253 0.001567 0.0 
0.001567 0.006890 0.0 
0.001565 0.000249 0.0 
0.006891 0.001566 0.0 
0.005576 0.000254 0.0 
0.006890 0.005576 0.0 
0.000249 0.005578 0.0 
0.005578 0.006894 0.0 
0.000280 0.005093 0.0 
0.005093 0.006863 0.0 
0.002064 0.000286 0.0 
0.006857 0.002064 0.0 
0.005093 0.000280 0.0 
0.006863 0.005093 0.0 
0.002064 0.006857 0.0 
0.000286 0.002064 0.0 
0.001988 0.001559 0.0 
0.005161 0.001556 0.0 
0.001556 0.005161 0.0 
0.005161 0.005587 0.0 
0.005575 0.001943 0.0 
0.001568 0.001943 0.0 
0.001943 0.005575 0.0 
0.005575 0.005200 0.0 
0.006459 0.004210 0.0 
0.004210 0.000684 0.0 
0.000684 0.004210 0.0 
0.004210 0.006459 0.0 
0.004821 0.006935 0.0 
0.000208 0.004821 0.0 
0.002342 0.000207 0.0 
0.006936 0.002342 0.0 
0.006935 0.004821 0.0 
0.004821 0.000208 0.0 
0.002342 0.006936 0.0 
0.000207 0.002342 0.0 
0.000926 0.001301 0.0 
0.001301 0.006217 0.0 
0.006217 0.005842 0.0 
0.004746 0.001323 0.0 
0.002389 0.001322 0.0 
0.001323 0.004746 0.0 
0.004746 0.005820 0.0 
0.001183 0.001396 0.0 
0.001396 0.005960 0.0 
0.005977 0.001398 0.0 
0.005960 0.005746 0.0 
0.005840 0.000937 0.0 
0.000653 0.003105 0.0 
0.003105 0.006490 0.0 
0.006490 0.003105 0.0 
0.003105 0.000653 0.0 
0.001060 0.002117 0.0 
0.002117 0.006083 0.0 
0.006083 0.002117 0.0 
0.006083 0.005027 0.0 
0.006499 0.003679 0.0 
0.003679 0.000644 0.0 
0.000644 0.003679 0.0 
0.003679 0.006499 0.0 
0.006558 0.002026 0.0 
0.002023 0.000590 0.0 
0.002026 0.006558 0.0 
0.000585 0.002026 0.0 
0.000578 0.005136 0.0 
0.005136 0.006565 0.0 
0.006567 0.005137 0.0 
0.005131 0.000576 0.0 
0.006216 0.004568 0.0 
0.004579 0.000926 0.0 
0.000926 0.004579 0.0 
0.004579 0.006217 0.0 
0.003035 0.006014 0.0 
0.001129 0.003035 0.0 
0.006014 0.003035 0.0 
0.003034 0.001129 0.0 
0.000203 0.000203 0.0 
0.006935 0.000208 0.0 
0.000208 0.006935 0.0 
0.006943 0.006943 0.0 
0.003026 0.000184 0.0 
[...]
<PointData  Scalars="DataArray"> 
<DataArray  type="Float64"  Name="u" NumberOfComponents="1" format="ascii"> 
101.71939510   
101.79082367   
101.79082367   
101.71939510   
101.75529055   
101.75510962   
101.75492882   
101.75510965   
101.72461378   
101.72970790   
101.73453092   
101.73899619   
101.74291981   
101.74636940   
101.74919014   
101.75149428   
101.75342484   
101.75511441   
101.75680537   
101.75872978   
101.76102198   
101.76384409   
101.76729852   
101.77122394   
101.77568872   
101.78051122   
101.78560510   
101.72461378   
101.72970790   
101.73453092   
101.73899619   
101.74291981   
101.74636940   
101.74919014   
101.75149428   
101.75342484   
101.75511441   
101.75680537   
101.75872978   
101.76102198   
101.76384409   
101.76729852   
101.77122394   
101.77568872   
101.78051122   
101.78560510   
101.71939528   
101.71939587   
101.71939686   
101.71939641   
101.71939534   
101.71939489   
101.71939474   
101.71939464   
101.71939450   
101.71939437   
101.71939442   
101.71939499   
101.71939627   
101.71939672   
101.71939472   
101.71939129   
101.71939339   
101.71939424   
101.71939491   
101.79082386   
101.79082444   
101.79082543   
101.79082498   
101.79082392   
101.79082346   
101.79082331   
101.79082321   
101.79082307   
101.79082294   
101.79082300   
101.79082356   
101.79082484   
101.79082529   
101.79082329   
101.79081987   
101.79082196   
101.79082281   
101.79082348   
101.75528812   
101.75528101   
101.75526981   
101.75525559   
101.75523821   
101.75521873   
101.75519798   
101.75517636   
101.75515436   
101.75513192   
101.75508735   
101.75506534   
101.75504296   
101.75502143   
101.75500061   
101.75498115   
101.75496395   
101.75494952   
101.75493847   
101.75493130   
101.75493141   
101.75493823   
101.75494943   
101.75496383   
101.75498122   
101.75500068   
101.75502139   
101.75504293   
101.75506530   
101.75508739   
101.75513188   
101.75515433   
101.75517641   
101.75519799   
101.75521874   
101.75523822   
101.75525558   
101.75526996   
101.75528121   
101.75528800   
101.73769516   
101.73732557   
101.77315460   
101.77252571   
101.74622816   
101.77398249   
101.73623486   
101.74622844   
101.73623403   
101.76399032   
101.76399325   
101.77398059   
101.75132002   
101.73558827   
101.77462985   
101.75132214   
101.77427913   
101.75892835   
101.73594446   
101.75892877   
101.73648153   
101.75461508   
101.77373571   
101.75461552   
101.72945836   
101.78075644   
101.72946080   
101.78076122   
101.74354648   
101.74612743   
101.76666401   
101.76667632   
101.73919983   
101.78044927   
101.72942220   
101.77102095   
101.72983832   
101.73949856   
101.77076244   
101.78038126   
101.73700302   
101.75643803   
101.77321230   
101.75643803   
101.74743025   
101.76278014   
101.74460837   
101.76278839   
101.75085002   
101.74324068   
101.76697748   
101.75064399   
101.76696958   
101.75976866   
101.74285573   
101.75977145   
101.78038030   
101.74844505   
101.74844413   
101.72983774   
101.78141880   
101.72881182   
101.76250761   
101.76250710   
101.75336266   
101.76755019   
101.75336107   
101.74266818   
101.75237754   
101.78004362   
101.75237678   
101.73017424   
101.74314804   
101.73798618   
101.76707412   
101.76737907   
101.74348368   
101.78228020   
101.72793779   
101.74348342   
101.72793852   
101.76673553   
101.78227912   
101.76673345   
101.72644753   
101.73427714   
101.77594749   
101.78377162   
101.73420539   
101.78366092   
101.72650479   
101.77601455   
101.77349151   
101.73676322   
101.74267751   
101.77345796   
101.78014474   
101.75810449   
101.73007268   
101.75810457   
101.73001634   
101.78020062   
101.75554168   
101.75554184   
101.75013936   
101.74635399   
101.76387777   
101.76386386   
101.74415582   
101.76604555   
101.75681625   
101.75681598   
101.72517715   
101.78504157   
101.72517685   
101.78504194   
101.74346291   
101.75525347   
101.76675369   
101.75525370   
101.73467972   
101.77827065   
101.73194324   
101.77554059   
101.76091990   
101.74930856   
101.74924286   
101.76091266   
101.76454003   
101.75279217   
101.75280878   
101.74567857   
101.73193521   
101.77478266   
101.73543415   
101.77828478   
101.75048975   
101.72607707   
101.78414091   
101.75049010   
101.74294804   
101.76774972   
101.74220512   
101.76727306   
101.75942362   
101.75080184   
101.74704172   
101.75942613   
101.78259586   
101.76030852   
101.72762334   
101.76030853   
101.76212544   
101.75706494   
101.74752097   
101.75706556   
101.72798735   
101.75383192   
101.78223014   
101.75383227   
101.75449490   
101.74548810   
101.75449562   
101.76473008   
101.72435586   
101.72969075   
101.78052782   
101.78586321   
101.72969055   
101.78586407   
101.72435403   
101.78052886   
101.74926182   
101.73620315   
101.77401483   
101.74929329   
101.77435522   
101.76104520   
101.73593566   
101.76104583   
101.73758936   
101.78603400   
101.72390436   
101.77263063   
101.72418403   
101.73763952   
101.77258241   
101.78603432   
101.74088265   
101.74665621   
101.76933749   
101.76934050   
101.74285168   
101.73287197   
101.76737077   
101.76709192   
101.74612319   
101.75579020   
101.76409067   
101.75579019   
101.77756600   
101.73265214   
101.74296885   
101.77756862   
101.74909823   
101.75255535   
101.76108622   
101.76112041   
101.77559123   
101.73890017   
101.73390926   
101.77132093   
101.75684266   
101.72688872   
101.78332841   
101.75684268   
101.74775408   
101.76259061   
101.74170653   
101.76252039   
101.72401309   
101.74070974   
101.74067750   
101.78621288   
101.76951475   
101.78620464   
101.72393906   
101.76954208   
101.72515817   
101.76450379   
101.74584652   
101.78492503   
101.76450348   
101.78506397   
101.74584662   
101.72529319   
101.75141742   
101.75889063   
101.74980466   
101.75889169   
101.76062436   
101.74959546   
101.75102045   
101.76062832   
101.77345171   
101.75757062   
101.73676274   
101.75757081   
101.76227617   
101.72399996   
101.74810351   
101.78623628   
101.78622341   
101.76227625   
101.74810372   
101.72398184   
101.73491864   
101.73901599   
101.77530191   
101.75741328   
101.75276432   
101.74945099   
101.75741454   
101.73935118   
101.74138702   
101.77112460   
101.77087006   
101.77115985   
101.73642963   
101.75336825   
101.77378826   
101.75336919   
101.74153536   
101.74885924   
101.76868241   
101.76870883   
101.77357690   
101.75551271   
101.73663959   
101.75551251   
101.77884540   
101.74609011   
101.74609803   
101.73137246   
101.73116895   
101.76431283   
101.77909883   
101.76427758   
101.76882605   
101.75872519   
101.74133117   
101.75872613   
101.75431682   
101.74942836   
101.76079053   
101.75431848   
101.72238136   
101.78775375   
101.72246494   
101.78787103   
101.75249026   
101.78612793   
101.75248998   
101.72408980   
101.75511488   
101.75518956   
101.75501869   
101.75510662   
101.75511543   
101.75518869   
101.75504885   
101.75503390   
101.75516746   
101.75522804   
101.75517069   
101.75513849   
101.75506571   
101.75506362   
101.75505893   
101.75499355   
101.75498668   
101.75507692   
101.75515964   
101.75513521   
101.75520749   
101.75512559   
101.75513586   
101.75523743   
101.75521114   
101.75497424   
101.75523839   
101.75509651   
101.75508221   
101.75509031   
101.75500816   
101.75502388   
101.75499537   
101.75503897   
101.75506976   
101.75503300   
101.75502763   
101.75510377   
101.75515989   
101.75519494   
101.75516616   
101.75519140   
101.75515818   
101.75510043   
101.75513163   
101.75516575   
101.75525423   
101.75519896   
101.75525584   
101.75505290   
101.75496766   
101.75496243   
101.75515345   
101.75516293   
101.75514152   
101.75521089   
101.75523733   
101.75513271   
101.75508164   
101.75523926   
101.75513705   
101.75511248   
101.75506547   
101.75510240   
101.75498181   
101.75503677   
101.75497070   
101.75506090   
101.75508767   
101.75506801   
101.75500024   
101.75499773   
101.75508647   
101.75505517   
101.75518232   
101.75520883   
101.75519073   
101.75508414   
101.75520988   
101.75511234   
101.75511700   
101.75506159   
101.75513906   
101.75501215   
101.75502125   
101.75504481   
101.75521174   
101.75518069   
101.75521182   
101.75514097   
101.75512098   
101.75511380   
101.75501348   
101.75499695   
101.75511002   
101.75514514   
101.75508710   
101.75525592   
101.75517937   
101.75523163   
101.75514837   
101.75494666   
101.75525726   
101.75512321   
101.75503144   
101.75501755   
101.75518749   
101.75508679   
101.75509156   
101.75503983   
101.75504032   
101.75526695   
101.75496671   
101.75495805   
101.75508037   
101.75523171   
101.75507635   
101.75523278   
101.75498901   
101.75501810   
101.75497474   
101.75503696   
101.75505602   
101.75515229   
101.75523008   
101.75526409   
101.75518809   
101.75514566   
101.75517882   
101.75517020   
101.75506628   
101.75521979   
101.75515723   
101.75510115   
101.75511962   
101.75521193   
101.75516719   
101.75526327   
101.75501311   
101.75500798   
101.75503668   
101.75507532   
101.75518929   
101.75515355   
101.75512372   
101.75515539   
101.75510689   
101.75511748   
101.75499133   
101.75500130   
101.75504110   
101.75517039   
101.75504522   
101.75505139   
101.75519171   
101.75508618   
101.75504088   
101.75509960   
101.75495248   
101.75494925   
101.75505021   
101.75506728   
101.75506726   
101.75509603   
101.75508636   
101.75520146   
101.75516169   
101.75524738   
101.75517649   
101.75508541   
101.75498074   
101.75497766   
101.75504845   
101.75502097   
101.75501849   
101.75514118   
101.75514400   
101.75521465   
101.75510055   
101.75517744   
</DataArray> 
</PointData> 
</Piece> 
</UnstructuredGrid> 
</VTKFile> 
