<VTKFile type="UnstructuredGrid"  version="0.1"   > 
<UnstructuredGrid> 
<Piece  NumberOfPoints="  602" NumberOfCells=" 1122"> 
<Points> 
<DataArray  type="Float64"  NumberOfComponents="3"  format="ascii" > 
0.000000 0.000000 0.0 
0.003571 0.000000 0.0 
0.003571 0.003571 0.0 
0.000000 0.003571 0.0 
0.002946 0.001786 0.0 
0.001786 0.002946 0.0 
0.000625 0.001786 0.0 
0.001786 0.000625 0.0 
0.000179 0.000000 0.0 
0.000357 0.000000 0.0 
0.000536 0.000000 0.0 
0.000714 0.000000 0.0 
0.000893 0.000000 0.0 
0.001071 0.000000 0.0 
0.001250 0.000000 0.0 
0.001429 0.000000 0.0 
0.001607 0.000000 0.0 
0.001786 0.000000 0.0 
0.001964 0.000000 0.0 
0.002143 0.000000 0.0 
0.002321 0.000000 0.0 
0.002500 0.000000 0.0 
0.002679 0.000000 0.0 
0.002857 0.000000 0.0 
0.003036 0.000000 0.0 
0.003214 0.000000 0.0 
0.003393 0.000000 0.0 
0.003571 0.000179 0.0 
0.003571 0.000357 0.0 
0.003571 0.000536 0.0 
0.003571 0.000714 0.0 
0.003571 0.000893 0.0 
0.003571 0.001071 0.0 
0.003571 0.001250 0.0 
0.003571 0.001429 0.0 
0.003571 0.001607 0.0 
0.003571 0.001786 0.0 
0.003571 0.001964 0.0 
0.003571 0.002143 0.0 
0.003571 0.002321 0.0 
0.003571 0.002500 0.0 
0.003571 0.002679 0.0 
0.003571 0.002857 0.0 
0.003571 0.003036 0.0 
0.003571 0.003214 0.0 
0.003571 0.003393 0.0 
0.000179 0.003571 0.0 
0.000357 0.003571 0.0 
0.000536 0.003571 0.0 
0.000714 0.003571 0.0 
0.000893 0.003571 0.0 
0.001071 0.003571 0.0 
0.001250 0.003571 0.0 
0.001429 0.003571 0.0 
0.001607 0.003571 0.0 
0.001786 0.003571 0.0 
0.001964 0.003571 0.0 
0.002143 0.003571 0.0 
0.002321 0.003571 0.0 
0.002500 0.003571 0.0 
0.002679 0.003571 0.0 
0.002857 0.003571 0.0 
0.003036 0.003571 0.0 
0.003214 0.003571 0.0 
0.003393 0.003571 0.0 
0.000000 0.000179 0.0 
0.000000 0.000357 0.0 
0.000000 0.000536 0.0 
0.000000 0.000714 0.0 
0.000000 0.000893 0.0 
0.000000 0.001071 0.0 
0.000000 0.001250 0.0 
0.000000 0.001429 0.0 
0.000000 0.001607 0.0 
0.000000 0.001786 0.0 
0.000000 0.001964 0.0 
0.000000 0.002143 0.0 
0.000000 0.002321 0.0 
0.000000 0.002500 0.0 
0.000000 0.002679 0.0 
0.000000 0.002857 0.0 
0.000000 0.003036 0.0 
0.000000 0.003214 0.0 
0.000000 0.003393 0.0 
0.002935 0.001951 0.0 
0.002899 0.002113 0.0 
0.002842 0.002268 0.0 
0.002762 0.002413 0.0 
0.002663 0.002546 0.0 
0.002546 0.002663 0.0 
0.002413 0.002762 0.0 
0.002268 0.002842 0.0 
0.002113 0.002899 0.0 
0.001951 0.002935 0.0 
0.001621 0.002935 0.0 
0.001459 0.002899 0.0 
0.001304 0.002842 0.0 
0.001158 0.002762 0.0 
0.001026 0.002663 0.0 
0.000909 0.002546 0.0 
0.000809 0.002413 0.0 
0.000730 0.002268 0.0 
0.000672 0.002113 0.0 
0.000637 0.001951 0.0 
0.000637 0.001621 0.0 
0.000672 0.001459 0.0 
0.000730 0.001304 0.0 
0.000809 0.001158 0.0 
0.000909 0.001026 0.0 
0.001026 0.000909 0.0 
0.001158 0.000809 0.0 
0.001304 0.000730 0.0 
0.001459 0.000672 0.0 
0.001621 0.000637 0.0 
0.001951 0.000637 0.0 
0.002113 0.000672 0.0 
0.002268 0.000730 0.0 
0.002413 0.000809 0.0 
0.002546 0.000909 0.0 
0.002663 0.001026 0.0 
0.002762 0.001158 0.0 
0.002842 0.001304 0.0 
0.002899 0.001459 0.0 
0.002935 0.001621 0.0 
0.000555 0.000561 0.0 
0.000561 0.002995 0.0 
0.003016 0.003011 0.0 
0.003016 0.000561 0.0 
0.000422 0.000972 0.0 
0.000972 0.000422 0.0 
0.003149 0.000972 0.0 
0.000972 0.003149 0.0 
0.000422 0.002599 0.0 
0.003149 0.002599 0.0 
0.002599 0.000422 0.0 
0.002599 0.003149 0.0 
0.001345 0.003238 0.0 
0.001345 0.000334 0.0 
0.000334 0.001345 0.0 
0.003238 0.001345 0.0 
0.002235 0.000343 0.0 
0.002235 0.003228 0.0 
0.003228 0.002235 0.0 
0.000343 0.002235 0.0 
0.001716 0.003252 0.0 
0.001716 0.000319 0.0 
0.000319 0.001716 0.0 
0.003252 0.001716 0.0 
0.000333 0.000333 0.0 
0.000333 0.003239 0.0 
0.003239 0.000333 0.0 
0.003239 0.003239 0.0 
0.000666 0.000847 0.0 
0.002905 0.000847 0.0 
0.000847 0.002905 0.0 
0.002905 0.002725 0.0 
0.000298 0.000703 0.0 
0.003274 0.000703 0.0 
0.000289 0.002875 0.0 
0.003274 0.002869 0.0 
0.000705 0.000302 0.0 
0.000707 0.003272 0.0 
0.002866 0.000302 0.0 
0.002866 0.003270 0.0 
0.000334 0.001967 0.0 
0.003238 0.001967 0.0 
0.001967 0.000334 0.0 
0.001967 0.003238 0.0 
0.000894 0.000677 0.0 
0.002677 0.000677 0.0 
0.000677 0.002677 0.0 
0.002677 0.002895 0.0 
0.001182 0.003041 0.0 
0.001163 0.000534 0.0 
0.000530 0.001182 0.0 
0.003041 0.001182 0.0 
0.002420 0.000533 0.0 
0.002420 0.003039 0.0 
0.003042 0.002385 0.0 
0.000533 0.002420 0.0 
0.000235 0.001166 0.0 
0.003336 0.001166 0.0 
0.001166 0.000235 0.0 
0.001166 0.003336 0.0 
0.003355 0.002446 0.0 
0.000217 0.002446 0.0 
0.002446 0.000217 0.0 
0.002446 0.003355 0.0 
0.000449 0.001486 0.0 
0.003122 0.001486 0.0 
0.001486 0.000449 0.0 
0.001486 0.003122 0.0 
0.000212 0.001484 0.0 
0.003359 0.001484 0.0 
0.001484 0.000212 0.0 
0.001484 0.003359 0.0 
0.000519 0.002778 0.0 
0.000790 0.000498 0.0 
0.002781 0.003074 0.0 
0.002781 0.000498 0.0 
0.000221 0.000899 0.0 
0.003350 0.000899 0.0 
0.000899 0.000221 0.0 
0.000899 0.003350 0.0 
0.000221 0.002673 0.0 
0.003350 0.002673 0.0 
0.002673 0.000221 0.0 
0.002673 0.003350 0.0 
0.000515 0.000219 0.0 
0.000515 0.003353 0.0 
0.003056 0.000219 0.0 
0.003056 0.003353 0.0 
0.000222 0.000514 0.0 
0.003349 0.000514 0.0 
0.000221 0.003059 0.0 
0.003349 0.003058 0.0 
0.000484 0.000788 0.0 
0.003088 0.000788 0.0 
0.003088 0.002784 0.0 
0.000788 0.003087 0.0 
0.002113 0.003359 0.0 
0.002113 0.000212 0.0 
0.003359 0.002113 0.0 
0.000212 0.002113 0.0 
0.001835 0.003371 0.0 
0.001835 0.000200 0.0 
0.003371 0.001835 0.0 
0.000200 0.001835 0.0 
0.001032 0.002910 0.0 
0.000662 0.001032 0.0 
0.002910 0.001032 0.0 
0.002910 0.002540 0.0 
0.003090 0.002107 0.0 
0.000481 0.002107 0.0 
0.002107 0.000481 0.0 
0.002107 0.003090 0.0 
0.000195 0.000195 0.0 
0.000195 0.003377 0.0 
0.003377 0.000195 0.0 
0.003377 0.003377 0.0 
0.000441 0.001813 0.0 
0.003131 0.001813 0.0 
0.001813 0.003131 0.0 
0.001813 0.000441 0.0 
0.000395 0.000506 0.0 
0.000395 0.003065 0.0 
0.003177 0.000506 0.0 
0.003177 0.003065 0.0 
0.000856 0.000848 0.0 
0.002715 0.000848 0.0 
0.002715 0.002723 0.0 
0.000848 0.002715 0.0 
0.000535 0.001345 0.0 
0.003036 0.001345 0.0 
0.001341 0.000536 0.0 
0.001345 0.003036 0.0 
0.000535 0.000390 0.0 
0.003037 0.000390 0.0 
0.000535 0.003181 0.0 
0.003037 0.003181 0.0 
0.001336 0.003432 0.0 
0.001336 0.000139 0.0 
0.000139 0.001336 0.0 
0.003432 0.001336 0.0 
0.000714 0.000656 0.0 
0.002857 0.000656 0.0 
0.000676 0.002848 0.0 
0.002857 0.002916 0.0 
0.001064 0.000667 0.0 
0.002506 0.000664 0.0 
0.002506 0.002907 0.0 
0.000664 0.002506 0.0 
0.002286 0.003397 0.0 
0.002286 0.000174 0.0 
0.003397 0.002286 0.0 
0.000174 0.002286 0.0 
0.002980 0.002260 0.0 
0.000574 0.002238 0.0 
0.002238 0.000574 0.0 
0.002238 0.002997 0.0 
0.001642 0.003408 0.0 
0.001642 0.000164 0.0 
0.000164 0.001642 0.0 
0.003408 0.001642 0.0 
0.000481 0.001642 0.0 
0.003090 0.001642 0.0 
0.001642 0.000481 0.0 
0.001642 0.003090 0.0 
0.000353 0.000161 0.0 
0.000353 0.003410 0.0 
0.003219 0.000161 0.0 
0.003219 0.003410 0.0 
0.000161 0.000353 0.0 
0.003410 0.000353 0.0 
0.000161 0.003219 0.0 
0.003410 0.003219 0.0 
0.001166 0.003193 0.0 
0.001165 0.000384 0.0 
0.000378 0.001166 0.0 
0.003193 0.001166 0.0 
0.002406 0.000371 0.0 
0.002406 0.003200 0.0 
0.003200 0.002417 0.0 
0.000371 0.002406 0.0 
0.000140 0.000652 0.0 
0.003431 0.000652 0.0 
0.000132 0.002920 0.0 
0.003431 0.002919 0.0 
0.000653 0.000142 0.0 
0.000653 0.003432 0.0 
0.002919 0.000142 0.0 
0.002919 0.003429 0.0 
0.000557 0.000930 0.0 
0.000930 0.003015 0.0 
0.003015 0.000930 0.0 
0.003015 0.002641 0.0 
0.000363 0.002737 0.0 
0.000849 0.000358 0.0 
0.002723 0.000358 0.0 
0.002723 0.003213 0.0 
0.000493 0.001946 0.0 
0.003079 0.001946 0.0 
0.001946 0.003079 0.0 
0.001946 0.000493 0.0 
0.000356 0.000842 0.0 
0.003216 0.000842 0.0 
0.000842 0.003216 0.0 
0.003216 0.002729 0.0 
0.001178 0.002910 0.0 
0.002910 0.001178 0.0 
0.000662 0.001178 0.0 
0.002907 0.002395 0.0 
0.000455 0.000646 0.0 
0.003117 0.000646 0.0 
0.003117 0.002925 0.0 
0.000431 0.002917 0.0 
0.000144 0.001976 0.0 
0.003427 0.001976 0.0 
0.001976 0.000144 0.0 
0.001976 0.003427 0.0 
0.000972 0.000561 0.0 
0.002599 0.000561 0.0 
0.000563 0.002596 0.0 
0.002599 0.003011 0.0 
0.000784 0.003445 0.0 
0.000783 0.000127 0.0 
0.000126 0.000783 0.0 
0.003445 0.000783 0.0 
0.002788 0.000127 0.0 
0.002788 0.003445 0.0 
0.003445 0.002788 0.0 
0.000124 0.002789 0.0 
0.000140 0.002546 0.0 
0.003432 0.002546 0.0 
0.000143 0.001032 0.0 
0.003428 0.001032 0.0 
0.002546 0.000140 0.0 
0.002546 0.003432 0.0 
0.001032 0.000143 0.0 
0.001032 0.003428 0.0 
0.000994 0.000779 0.0 
0.002580 0.000778 0.0 
0.002580 0.002793 0.0 
0.000778 0.002580 0.0 
0.000784 0.000972 0.0 
0.002788 0.000972 0.0 
0.000972 0.002788 0.0 
0.002788 0.002600 0.0 
0.002105 0.003229 0.0 
0.002105 0.000342 0.0 
0.003229 0.002105 0.0 
0.000342 0.002105 0.0 
0.000104 0.002411 0.0 
0.003467 0.002411 0.0 
0.000103 0.001171 0.0 
0.003468 0.001171 0.0 
0.002411 0.000104 0.0 
0.002411 0.003467 0.0 
0.001171 0.000103 0.0 
0.001171 0.003468 0.0 
0.000650 0.003109 0.0 
0.001195 0.000661 0.0 
0.002373 0.000662 0.0 
0.002373 0.002910 0.0 
0.000662 0.002373 0.0 
0.000583 0.000699 0.0 
0.002988 0.000699 0.0 
0.000698 0.002980 0.0 
0.002988 0.002873 0.0 
0.000651 0.000468 0.0 
0.002920 0.000468 0.0 
0.002920 0.003103 0.0 
0.001553 0.003245 0.0 
0.001553 0.000327 0.0 
0.000327 0.001553 0.0 
0.003245 0.001553 0.0 
0.001058 0.003041 0.0 
0.000530 0.001058 0.0 
0.003041 0.001058 0.0 
0.003042 0.002514 0.0 
0.001839 0.003250 0.0 
0.001839 0.000322 0.0 
0.003250 0.001839 0.0 
0.000322 0.001839 0.0 
0.000293 0.001013 0.0 
0.003279 0.001013 0.0 
0.001014 0.000294 0.0 
0.001013 0.003279 0.0 
0.000289 0.002568 0.0 
0.003284 0.002568 0.0 
0.002566 0.000288 0.0 
0.002566 0.003283 0.0 
0.002290 0.003108 0.0 
0.002290 0.000463 0.0 
0.003108 0.002284 0.0 
0.000463 0.002290 0.0 
0.001517 0.003007 0.0 
0.001517 0.000564 0.0 
0.000564 0.001517 0.0 
0.003007 0.001517 0.0 
0.000096 0.000096 0.0 
0.000104 0.003467 0.0 
0.003467 0.000104 0.0 
0.003470 0.003470 0.0 
0.000092 0.001513 0.0 
[...]
<PointData  Scalars="DataArray"> 
<DataArray  type="Float64"  Name="u" NumberOfComponents="1" format="ascii"> 
157.04472910   
157.04348458   
157.04351346   
157.04351270   
176.64049137   
176.64051718   
176.64049862   
176.64052757   
157.26470740   
158.03207427   
159.02722521   
160.46766591   
161.96908145   
163.64713623   
165.09423340   
166.26262703   
167.03048643   
167.21228696   
167.05137963   
166.18552913   
165.09174876   
163.66088574   
161.97909252   
160.47194099   
159.02928809   
158.03322420   
157.26593716   
157.26613027   
158.03392855   
159.03000231   
160.47296496   
161.97236743   
163.64784596   
165.09403306   
166.26322116   
167.03177746   
167.21393297   
167.05302120   
166.18612258   
165.09077153   
163.66077325   
161.98140121   
160.47605453   
159.03073890   
158.03360715   
157.26514913   
157.26585377   
158.03293083   
159.02895577   
160.46993831   
161.96894175   
163.64452092   
165.09116119   
166.26072066   
167.02942819   
167.21153443   
167.05068094   
166.18473372   
165.09076858   
163.65968521   
161.97771288   
160.47048149   
159.02791635   
158.03203345   
157.26473779   
157.26513574   
158.03371305   
159.03016569   
160.47330631   
161.97264565   
163.64788909   
165.09366388   
166.26229721   
167.03015836   
167.21149791   
167.04989311   
166.18319186   
165.08854708   
163.65736813   
161.97878140   
160.47758191   
159.03317136   
158.03493718   
157.26636809   
176.64036878   
176.63886612   
176.63786727   
176.63614421   
176.63556998   
176.63556958   
176.63622766   
176.63764035   
176.63907255   
176.64023907   
176.64030195   
176.63913586   
176.63759490   
176.63619731   
176.63574369   
176.63537875   
176.63643305   
176.63766320   
176.63913199   
176.64025075   
176.64040047   
176.63893505   
176.63766759   
176.63615523   
176.63557918   
176.63557733   
176.63624076   
176.63748675   
176.63910996   
176.64026511   
176.64029805   
176.63912510   
176.63778432   
176.63625135   
176.63572188   
176.63535445   
176.63636389   
176.63746077   
176.63915761   
176.64026378   
162.29219303   
162.49582197   
162.28814904   
162.29078927   
165.54112296   
165.53019326   
165.54043204   
165.53603450   
165.51835108   
165.53302465   
165.52978387   
165.52825396   
168.04115129   
168.04199381   
168.04296516   
168.04337042   
168.10621690   
168.10546110   
168.11183009   
168.10321603   
169.57654593   
169.57690621   
169.57674024   
169.57868352   
158.75234396   
158.75096082   
158.75246871   
158.75140152   
167.58747584   
167.58538651   
167.57327207   
167.57833728   
161.38083409   
161.38017400   
161.27561566   
161.37948596   
161.41636189   
161.42472314   
161.41735177   
161.41562512   
169.50363556   
169.50794049   
169.50483594   
169.50435559   
168.55263710   
168.54554947   
168.54388914   
168.54320615   
169.89246975   
169.70650972   
169.89498470   
169.89473074   
169.47963539   
169.47865498   
169.89255454   
169.47439431   
165.46034960   
165.46038856   
165.46378424   
165.45733274   
164.96176237   
164.96023879   
164.96422728   
164.96308992   
171.07590935   
171.07649042   
171.07386629   
171.07507281   
167.55523596   
167.55624441   
167.55507590   
167.55400576   
164.58358758   
164.25535433   
164.24939197   
164.25161917   
162.77622400   
162.77579085   
162.77280677   
162.77151984   
162.77093364   
162.78038601   
162.77803596   
162.77656438   
159.37890175   
159.38060817   
159.38001689   
159.37858419   
159.38543991   
159.38516359   
159.37330869   
159.38494130   
164.06028626   
164.05902453   
164.05411716   
164.07376369   
167.38207067   
167.38277338   
167.38490141   
167.38062752   
168.18135169   
168.18193583   
168.18387739   
168.18110708   
170.49498026   
170.49828530   
170.49733389   
170.47990489   
171.53607513   
171.52619989   
171.52765102   
171.52723095   
157.63670052   
157.63673827   
157.63684038   
157.63614413   
171.84975394   
171.85195747   
171.84986670   
171.85009234   
160.36291991   
160.35353745   
160.36236629   
160.36083383   
171.17684196   
171.17289290   
171.16929297   
171.18807394   
171.71444433   
171.71456515   
171.69259336   
171.71322689   
160.55046727   
160.55023889   
160.54997526   
160.54846208   
166.06471312   
166.06723401   
166.06674187   
166.06732016   
165.38070746   
165.37728645   
165.81943642   
165.37379394   
171.12737393   
171.07971793   
171.07855106   
171.07772281   
165.91511846   
165.91602980   
165.91404179   
165.91290800   
172.80390895   
172.59862922   
172.60039460   
172.59994163   
167.69715852   
167.69795133   
167.69770896   
167.69944527   
172.48158364   
172.48249569   
172.48122686   
172.48129826   
158.17449475   
158.17486847   
158.17522851   
158.17411742   
158.17606385   
158.17613089   
158.17653416   
158.17562467   
167.06134872   
167.15422654   
167.06435957   
167.06423723   
166.95443168   
166.95339701   
166.83721518   
166.94930044   
160.18909143   
160.18872210   
160.15984172   
160.19012357   
160.19044465   
160.18834439   
160.19314733   
160.19165375   
166.98315162   
166.97832185   
166.98195308   
166.97114195   
163.28040985   
163.39958345   
163.39967186   
163.39794963   
172.73772653   
172.74136620   
172.73812220   
172.73838378   
163.31491838   
163.31415662   
163.30949479   
163.31138715   
172.84680402   
172.84808610   
172.84838366   
172.84482666   
162.19683290   
162.19571665   
162.19304808   
162.03747294   
167.45574622   
167.45918248   
167.45723119   
167.45658062   
167.67998552   
167.66166510   
167.72810280   
167.65999329   
161.27589279   
161.27341201   
161.27486685   
161.27447253   
161.27831332   
161.27683095   
161.27830142   
161.26575690   
163.55337769   
163.55823424   
163.62012714   
163.61996030   
163.55801691   
163.55674190   
163.61894163   
163.61640528   
172.53151052   
172.43531558   
172.43383376   
172.43719139   
172.19683890   
172.19530992   
172.19654332   
172.18861338   
169.03290205   
169.03349201   
169.03828992   
169.03154368   
164.60779907   
164.61022950   
164.68428216   
164.68442952   
164.61142849   
164.61033987   
164.68505945   
164.68134988   
162.31185579   
173.06759578   
173.11050914   
173.10992633   
173.10864745   
164.24045819   
164.23848886   
164.34047657   
164.23436799   
162.36157742   
162.36004425   
162.35780744   
169.25697022   
169.25713932   
169.25776604   
169.25886138   
168.25354655   
168.25751441   
168.25686104   
168.22576230   
169.67743026   
169.67784900   
169.68004983   
169.67718460   
164.49387053   
164.49350502   
164.51438835   
164.48965929   
164.36275825   
164.35347678   
164.38355936   
164.38219824   
169.64658160   
169.64731018   
169.71221921   
169.64401815   
173.97856428   
173.97872412   
173.97891259   
173.97923585   
157.22446381   
157.24973343   
157.24971675   
157.23971668   
166.88752455   
166.88874004   
166.88771703   
166.88637301   
176.68886251   
176.67701129   
176.67702574   
176.67442449   
176.67605117   
176.67558637   
176.67556741   
176.66745047   
176.66743901   
176.66561291   
176.66562459   
176.66617227   
176.66617042   
176.68428046   
176.68480074   
176.68459872   
176.68458975   
176.68539635   
176.68540008   
176.66165777   
176.66167597   
176.66073760   
176.66072221   
176.65890756   
176.65893359   
176.65915542   
176.65917519   
176.65938623   
176.65942388   
176.65981754   
176.65980437   
176.67747694   
176.67745769   
176.67659974   
176.67660597   
176.67622454   
176.67549139   
176.65535738   
176.65511724   
176.65536776   
176.65513336   
176.67599462   
176.67624903   
176.65362167   
176.65361937   
176.65449577   
176.65452073   
176.65373220   
176.65377499   
176.65510087   
176.65509244   
176.68427087   
176.68430267   
176.68313238   
176.68311824   
176.67030133   
176.67044669   
176.65335698   
176.65339499   
176.65183567   
176.65185184   
176.67053886   
176.67055975   
176.68400081   
176.68297664   
176.68759493   
176.68762524   
176.65362565   
176.65360682   
176.68739874   
176.68739750   
176.67140275   
176.67138509   
176.68681714   
176.68645745   
176.67108132   
176.67107477   
176.67750239   
176.67748858   
176.66735085   
176.66736932   
176.66594013   
176.66632773   
176.67990735   
176.67948674   
176.66649914   
176.66647796   
176.66883881   
176.66882374   
176.65182134   
176.65183189   
176.64783681   
176.64787521   
176.66859810   
176.66864910   
176.64843076   
176.64849582   
176.64774720   
176.64776252   
176.65021120   
176.65020439   
176.64932267   
176.64926969   
176.64970591   
176.64969777   
176.64794092   
176.64796446   
176.67117619   
176.67124619   
176.65028982   
176.65028878   
176.66365645   
176.66364692   
176.66348413   
176.66348199   
176.68078159   
176.68117432   
176.66360369   
176.66362929   
176.66266454   
176.66268415   
176.65004464   
176.65005647   
176.64729775   
176.64730888   
176.64973174   
176.64971913   
176.67166765   
176.67166679   
176.67993158   
176.67992964   
176.66118958   
176.66117864   
176.64796599   
176.64804644   
176.67310259   
176.67315882   
176.67140260   
176.67141591   
176.64729003   
176.64731872   
176.64772577   
176.64776334   
176.68183480   
176.68153905   
176.67397936   
176.67374969   
176.68086293   
176.67890987   
176.67842665   
176.67847878   
176.66325514   
176.66326152   
176.64741915   
176.64743308   
176.64588038   
176.64591515   
176.68039534   
176.65870895   
176.65871292   
176.65758343   
176.65759838   
176.67937870   
176.68797678   
176.68807202   
176.67808976   
176.68722207   
176.68721446   
176.66085393   
176.66087083   
176.67015385   
176.67015818   
176.68103539   
176.68104521   
</DataArray> 
</PointData> 
</Piece> 
</UnstructuredGrid> 
</VTKFile> 
