<VTKFile type="UnstructuredGrid"  version="0.1"   > 
<UnstructuredGrid> 
<Piece  NumberOfPoints="  1343" NumberOfCells=" 2436"> 
<Points> 
<DataArray  type="Float64"  NumberOfComponents="3"  format="ascii" > 
0.000000 0.000000 0.0 
0.007143 0.000000 0.0 
0.007143 0.007143 0.0 
0.000000 0.007143 0.0 
0.005893 0.003571 0.0 
0.003571 0.005893 0.0 
0.001250 0.003571 0.0 
0.003571 0.001250 0.0 
0.005893 0.003571 0.0 
0.003571 0.005893 0.0 
0.001250 0.003571 0.0 
0.003571 0.001250 0.0 
0.000238 0.000000 0.0 
0.000476 0.000000 0.0 
0.000714 0.000000 0.0 
0.000952 0.000000 0.0 
0.001190 0.000000 0.0 
0.001429 0.000000 0.0 
0.001667 0.000000 0.0 
0.001905 0.000000 0.0 
0.002143 0.000000 0.0 
0.002381 0.000000 0.0 
0.002619 0.000000 0.0 
0.002857 0.000000 0.0 
0.003095 0.000000 0.0 
0.003333 0.000000 0.0 
0.003571 0.000000 0.0 
0.003810 0.000000 0.0 
0.004048 0.000000 0.0 
0.004286 0.000000 0.0 
0.004524 0.000000 0.0 
0.004762 0.000000 0.0 
0.005000 0.000000 0.0 
0.005238 0.000000 0.0 
0.005476 0.000000 0.0 
0.005714 0.000000 0.0 
0.005952 0.000000 0.0 
0.006190 0.000000 0.0 
0.006429 0.000000 0.0 
0.006667 0.000000 0.0 
0.006905 0.000000 0.0 
0.000238 0.007143 0.0 
0.000476 0.007143 0.0 
0.000714 0.007143 0.0 
0.000952 0.007143 0.0 
0.001190 0.007143 0.0 
0.001429 0.007143 0.0 
0.001667 0.007143 0.0 
0.001905 0.007143 0.0 
0.002143 0.007143 0.0 
0.002381 0.007143 0.0 
0.002619 0.007143 0.0 
0.002857 0.007143 0.0 
0.003095 0.007143 0.0 
0.003333 0.007143 0.0 
0.003571 0.007143 0.0 
0.003810 0.007143 0.0 
0.004048 0.007143 0.0 
0.004286 0.007143 0.0 
0.004524 0.007143 0.0 
0.004762 0.007143 0.0 
0.005000 0.007143 0.0 
0.005238 0.007143 0.0 
0.005476 0.007143 0.0 
0.005714 0.007143 0.0 
0.005952 0.007143 0.0 
0.006190 0.007143 0.0 
0.006429 0.007143 0.0 
0.006667 0.007143 0.0 
0.006905 0.007143 0.0 
0.000000 0.000238 0.0 
0.000000 0.000476 0.0 
0.000000 0.000714 0.0 
0.000000 0.000952 0.0 
0.000000 0.001190 0.0 
0.000000 0.001429 0.0 
0.000000 0.001667 0.0 
0.000000 0.001905 0.0 
0.000000 0.002143 0.0 
0.000000 0.002381 0.0 
0.000000 0.002619 0.0 
0.000000 0.002857 0.0 
0.000000 0.003095 0.0 
0.000000 0.003333 0.0 
0.000000 0.003571 0.0 
0.000000 0.003810 0.0 
0.000000 0.004048 0.0 
0.000000 0.004286 0.0 
0.000000 0.004524 0.0 
0.000000 0.004762 0.0 
0.000000 0.005000 0.0 
0.000000 0.005238 0.0 
0.000000 0.005476 0.0 
0.000000 0.005714 0.0 
0.000000 0.005952 0.0 
0.000000 0.006190 0.0 
0.000000 0.006429 0.0 
0.000000 0.006667 0.0 
0.000000 0.006905 0.0 
0.007143 0.000238 0.0 
0.007143 0.000476 0.0 
0.007143 0.000714 0.0 
0.007143 0.000952 0.0 
0.007143 0.001190 0.0 
0.007143 0.001429 0.0 
0.007143 0.001667 0.0 
0.007143 0.001905 0.0 
0.007143 0.002143 0.0 
0.007143 0.002381 0.0 
0.007143 0.002619 0.0 
0.007143 0.002857 0.0 
0.007143 0.003095 0.0 
0.007143 0.003333 0.0 
0.007143 0.003571 0.0 
0.007143 0.003810 0.0 
0.007143 0.004048 0.0 
0.007143 0.004286 0.0 
0.007143 0.004524 0.0 
0.007143 0.004762 0.0 
0.007143 0.005000 0.0 
0.007143 0.005238 0.0 
0.007143 0.005476 0.0 
0.007143 0.005714 0.0 
0.007143 0.005952 0.0 
0.007143 0.006190 0.0 
0.007143 0.006429 0.0 
0.007143 0.006667 0.0 
0.007143 0.006905 0.0 
0.005882 0.003799 0.0 
0.005848 0.004024 0.0 
0.005793 0.004245 0.0 
0.005716 0.004460 0.0 
0.005619 0.004666 0.0 
0.005502 0.004861 0.0 
0.005366 0.005044 0.0 
0.005213 0.005213 0.0 
0.005044 0.005366 0.0 
0.004861 0.005502 0.0 
0.004666 0.005619 0.0 
0.004460 0.005716 0.0 
0.004245 0.005793 0.0 
0.004024 0.005848 0.0 
0.003799 0.005882 0.0 
0.003344 0.005882 0.0 
0.003119 0.005848 0.0 
0.002898 0.005793 0.0 
0.002683 0.005716 0.0 
0.002477 0.005619 0.0 
0.002282 0.005502 0.0 
0.002099 0.005366 0.0 
0.001930 0.005213 0.0 
0.001777 0.005044 0.0 
0.001641 0.004861 0.0 
0.001524 0.004666 0.0 
0.001427 0.004460 0.0 
0.001350 0.004245 0.0 
0.001295 0.004024 0.0 
0.001261 0.003799 0.0 
0.001261 0.003344 0.0 
0.001295 0.003119 0.0 
0.001350 0.002898 0.0 
0.001427 0.002683 0.0 
0.001524 0.002477 0.0 
0.001641 0.002282 0.0 
0.001777 0.002099 0.0 
0.001930 0.001930 0.0 
0.002099 0.001777 0.0 
0.002282 0.001641 0.0 
0.002477 0.001524 0.0 
0.002683 0.001427 0.0 
0.002898 0.001350 0.0 
0.003119 0.001295 0.0 
0.003344 0.001261 0.0 
0.003799 0.001261 0.0 
0.004024 0.001295 0.0 
0.004245 0.001350 0.0 
0.004460 0.001427 0.0 
0.004666 0.001524 0.0 
0.004861 0.001641 0.0 
0.005044 0.001777 0.0 
0.005213 0.001930 0.0 
0.005366 0.002099 0.0 
0.005502 0.002282 0.0 
0.005619 0.002477 0.0 
0.005716 0.002683 0.0 
0.005793 0.002898 0.0 
0.005848 0.003119 0.0 
0.005882 0.003344 0.0 
0.005882 0.003799 0.0 
0.005848 0.004024 0.0 
0.005793 0.004245 0.0 
0.005716 0.004460 0.0 
0.005619 0.004666 0.0 
0.005502 0.004861 0.0 
0.005366 0.005044 0.0 
0.005213 0.005213 0.0 
0.005044 0.005366 0.0 
0.004861 0.005502 0.0 
0.004666 0.005619 0.0 
0.004460 0.005716 0.0 
0.004245 0.005793 0.0 
0.004024 0.005848 0.0 
0.003799 0.005882 0.0 
0.003344 0.005882 0.0 
0.003119 0.005848 0.0 
0.002898 0.005793 0.0 
0.002683 0.005716 0.0 
0.002477 0.005619 0.0 
0.002282 0.005502 0.0 
0.002099 0.005366 0.0 
0.001930 0.005213 0.0 
0.001777 0.005044 0.0 
0.001641 0.004861 0.0 
0.001524 0.004666 0.0 
0.001427 0.004460 0.0 
0.001350 0.004245 0.0 
0.001295 0.004024 0.0 
0.001261 0.003799 0.0 
0.001261 0.003344 0.0 
0.001295 0.003119 0.0 
0.001350 0.002898 0.0 
0.001427 0.002683 0.0 
0.001524 0.002477 0.0 
0.001641 0.002282 0.0 
0.001777 0.002099 0.0 
0.001930 0.001930 0.0 
0.002099 0.001777 0.0 
0.002282 0.001641 0.0 
0.002477 0.001524 0.0 
0.002683 0.001427 0.0 
0.002898 0.001350 0.0 
0.003119 0.001295 0.0 
0.003344 0.001261 0.0 
0.003799 0.001261 0.0 
0.004024 0.001295 0.0 
0.004245 0.001350 0.0 
0.004460 0.001427 0.0 
0.004666 0.001524 0.0 
0.004861 0.001641 0.0 
0.005044 0.001777 0.0 
0.005213 0.001930 0.0 
0.005366 0.002099 0.0 
0.005502 0.002282 0.0 
0.005619 0.002477 0.0 
0.005716 0.002683 0.0 
0.005793 0.002898 0.0 
0.005848 0.003119 0.0 
0.005882 0.003344 0.0 
0.001109 0.001149 0.0 
0.005994 0.001109 0.0 
0.001148 0.006004 0.0 
0.006034 0.005994 0.0 
0.006267 0.001959 0.0 
0.000853 0.001960 0.0 
0.001960 0.006290 0.0 
0.001959 0.000876 0.0 
0.005183 0.000853 0.0 
0.006290 0.005183 0.0 
0.005184 0.006267 0.0 
0.000876 0.005184 0.0 
0.000702 0.002628 0.0 
0.002628 0.006441 0.0 
0.006441 0.002628 0.0 
0.002628 0.000702 0.0 
0.004515 0.000702 0.0 
0.006441 0.004515 0.0 
0.000702 0.004515 0.0 
0.004515 0.006441 0.0 
0.000671 0.000687 0.0 
0.006488 0.000647 0.0 
0.000647 0.006488 0.0 
0.006472 0.006455 0.0 
0.000630 0.003427 0.0 
0.003427 0.006513 0.0 
0.003427 0.000630 0.0 
0.006513 0.003427 0.0 
0.001369 0.001668 0.0 
0.001665 0.005771 0.0 
0.005475 0.001369 0.0 
0.005774 0.005475 0.0 
0.000611 0.001424 0.0 
0.001408 0.006526 0.0 
0.001409 0.000625 0.0 
0.006518 0.001409 0.0 
0.005718 0.000611 0.0 
0.006532 0.005718 0.0 
0.000617 0.005703 0.0 
0.005734 0.006518 0.0 
0.003960 0.006428 0.0 
0.000714 0.003960 0.0 
0.003960 0.000714 0.0 
0.006428 0.003960 0.0 
0.005782 0.001789 0.0 
0.001789 0.001361 0.0 
0.001361 0.005354 0.0 
0.005354 0.005782 0.0 
0.006677 0.002209 0.0 
0.000439 0.002218 0.0 
0.002218 0.006704 0.0 
0.002209 0.000465 0.0 
0.004925 0.000439 0.0 
0.000465 0.004934 0.0 
0.006704 0.004925 0.0 
0.004934 0.006677 0.0 
0.001068 0.002334 0.0 
0.002334 0.006074 0.0 
0.006084 0.002354 0.0 
0.002354 0.001059 0.0 
0.004800 0.001076 0.0 
0.006067 0.004800 0.0 
0.001072 0.004751 0.0 
0.004751 0.006070 0.0 
0.006731 0.003028 0.0 
0.003028 0.000412 0.0 
0.000412 0.003028 0.0 
0.003028 0.006731 0.0 
0.003020 0.006266 0.0 
0.000877 0.003020 0.0 
0.006266 0.003020 0.0 
0.003020 0.000877 0.0 
0.001538 0.001011 0.0 
0.006132 0.001538 0.0 
0.001013 0.005603 0.0 
0.005605 0.006132 0.0 
0.000450 0.001818 0.0 
0.001818 0.006693 0.0 
0.001818 0.000450 0.0 
0.006693 0.001818 0.0 
0.005325 0.000450 0.0 
0.006693 0.005325 0.0 
0.000450 0.005325 0.0 
0.005325 0.006693 0.0 
0.000397 0.000982 0.0 
0.001004 0.006738 0.0 
0.001007 0.000410 0.0 
0.006161 0.000397 0.0 
0.006746 0.006161 0.0 
0.006738 0.001004 0.0 
0.000397 0.006161 0.0 
0.006136 0.006733 0.0 
0.004220 0.000410 0.0 
0.006733 0.004220 0.0 
0.000410 0.004220 0.0 
0.004220 0.006733 0.0 
0.000981 0.001552 0.0 
0.001556 0.006167 0.0 
0.005591 0.000981 0.0 
0.006162 0.005591 0.0 
0.003733 0.000394 0.0 
0.006749 0.003733 0.0 
0.000394 0.003733 0.0 
0.003733 0.006749 0.0 
0.001323 0.002051 0.0 
0.002051 0.005820 0.0 
0.005092 0.001323 0.0 
0.005820 0.005092 0.0 
0.000363 0.000357 0.0 
0.006780 0.000357 0.0 
0.000357 0.006780 0.0 
0.006780 0.006786 0.0 
0.004276 0.000984 0.0 
0.000984 0.004276 0.0 
0.006159 0.004276 0.0 
0.004276 0.006159 0.0 
0.001038 0.000804 0.0 
0.006339 0.001038 0.0 
0.001038 0.006339 0.0 
0.006104 0.006339 0.0 
0.002707 0.006094 0.0 
0.001049 0.002707 0.0 
0.006095 0.002708 0.0 
0.002708 0.001048 0.0 
0.000893 0.003661 0.0 
0.003661 0.006250 0.0 
0.003661 0.000893 0.0 
0.006250 0.003661 0.0 
0.000773 0.001086 0.0 
0.000773 0.006057 0.0 
0.006057 0.000773 0.0 
0.006370 0.006057 0.0 
0.006817 0.002553 0.0 
0.002553 0.000326 0.0 
0.000351 0.004600 0.0 
0.004600 0.006792 0.0 
0.000326 0.002553 0.0 
0.002553 0.006817 0.0 
0.004600 0.000351 0.0 
0.006792 0.004600 0.0 
0.005800 0.002137 0.0 
0.002137 0.001343 0.0 
0.001362 0.005004 0.0 
0.005004 0.005781 0.0 
0.001410 0.001333 0.0 
0.001325 0.005730 0.0 
0.005809 0.001410 0.0 
0.005733 0.005809 0.0 
0.001716 0.001671 0.0 
0.005472 0.001716 0.0 
0.001671 0.005427 0.0 
0.005427 0.005472 0.0 
0.003333 0.000975 0.0 
0.006168 0.003333 0.0 
0.000975 0.003333 0.0 
0.003333 0.006168 0.0 
0.003314 0.000332 0.0 
0.006811 0.003314 0.0 
0.000332 0.003314 0.0 
0.003314 0.006811 0.0 
0.000326 0.000703 0.0 
0.000719 0.006832 0.0 
0.006440 0.000326 0.0 
0.006817 0.006440 0.0 
0.000717 0.000306 0.0 
0.006832 0.000719 0.0 
0.000326 0.006440 0.0 
0.006425 0.006837 0.0 
0.000779 0.002347 0.0 
0.002347 0.006364 0.0 
0.006375 0.002347 0.0 
0.002347 0.000768 0.0 
0.004782 0.000788 0.0 
0.006355 0.004782 0.0 
0.000771 0.004788 0.0 
0.004788 0.006372 0.0 
0.000308 0.001287 0.0 
[...]
<PointData  Scalars="DataArray"> 
<DataArray  type="Float64"  Name="u" NumberOfComponents="1" format="ascii"> 
119.87689721   
119.87689721   
119.87689721   
119.87689721   
198.47412836   
198.47404045   
198.47402454   
198.47415593   
198.47412836   
198.47404045   
198.47402454   
198.47415593   
120.41741133   
121.65066512   
123.58337316   
126.42144822   
129.78025132   
133.57087089   
137.70735046   
141.94436400   
146.31977488   
150.20273908   
153.85899935   
156.74429077   
159.00537872   
160.41017551   
160.80376128   
160.34380023   
158.94332812   
156.75819467   
153.80992455   
150.21840877   
146.33124712   
141.94987627   
137.70734083   
133.57638518   
129.78903879   
126.43039907   
123.58810922   
121.65570766   
120.41975255   
120.41741133   
121.65066512   
123.58337316   
126.42144822   
129.78025132   
133.57087089   
137.70735046   
141.94436400   
146.31977488   
150.20273908   
153.85899935   
156.74429077   
159.00537872   
160.41017551   
160.80376128   
160.34380023   
158.94332812   
156.75819467   
153.80992455   
150.21840877   
146.33124712   
141.94987627   
137.70734083   
133.57638518   
129.78903879   
126.43039907   
123.58810922   
121.65570766   
120.41975255   
120.41614785   
121.64710646   
123.58024192   
126.42610957   
129.78464095   
133.57086383   
137.69984141   
141.93950676   
146.31653300   
150.20066527   
153.85767453   
156.74339549   
159.00476279   
160.40974184   
160.80345160   
160.34357097   
158.94313624   
156.75797655   
153.80956972   
150.21770243   
146.32991490   
141.94781054   
137.70231807   
133.57778187   
129.79474627   
126.43649631   
123.58623322   
121.65312499   
120.41903265   
120.41614785   
121.64710646   
123.58024192   
126.42610957   
129.78464095   
133.57086383   
137.69984141   
141.93950676   
146.31653300   
150.20066527   
153.85767453   
156.74339549   
159.00476279   
160.40974184   
160.80345160   
160.34357097   
158.94313624   
156.75797655   
153.80956972   
150.21770243   
146.32991490   
141.94781054   
137.70231807   
133.57778187   
129.79474627   
126.43649631   
123.58623322   
121.65312499   
120.41903265   
198.47320477   
198.47075130   
198.46738058   
198.46315367   
198.45934201   
198.45582529   
198.45347166   
198.45296286   
198.45343427   
198.45632089   
198.45905497   
198.46326396   
198.46769684   
198.47078014   
198.47330010   
198.47273409   
198.47073963   
198.46729164   
198.46383714   
198.45914815   
198.45573776   
198.45359221   
198.45304888   
198.45343236   
198.45628165   
198.45912975   
198.46328169   
198.46770151   
198.47079392   
198.47329458   
198.47261555   
198.47073895   
198.46732790   
198.46388994   
198.45923995   
198.45582581   
198.45350954   
198.45302865   
198.45350276   
198.45631829   
198.45939664   
198.46333493   
198.46757867   
198.47075718   
198.47287187   
198.47323026   
198.47077484   
198.46740243   
198.46317423   
198.45936179   
198.45584517   
198.45349319   
198.45298748   
198.45345953   
198.45627760   
198.45935822   
198.46329869   
198.46754454   
198.47072522   
198.47284209   
198.47320477   
198.47075130   
198.46738058   
198.46315367   
198.45934201   
198.45582529   
198.45347166   
198.45296286   
198.45343427   
198.45632089   
198.45905497   
198.46326396   
198.46769684   
198.47078014   
198.47330010   
198.47273409   
198.47073963   
198.46729164   
198.46383714   
198.45914815   
198.45573776   
198.45359221   
198.45304888   
198.45343236   
198.45628165   
198.45912975   
198.46328169   
198.46770151   
198.47079392   
198.47329458   
198.47261555   
198.47073895   
198.46732790   
198.46388994   
198.45923995   
198.45582581   
198.45350954   
198.45302865   
198.45350276   
198.45631829   
198.45939664   
198.46333493   
198.46757867   
198.47075718   
198.47287187   
198.47323026   
198.47077484   
198.46740243   
198.46317423   
198.45936179   
198.45584517   
198.45349319   
198.45298748   
198.45345953   
198.45627760   
198.45935822   
198.46329869   
198.46754454   
198.47072522   
198.47284209   
141.55743716   
141.55696690   
142.15208779   
141.56316224   
155.08567625   
154.41247431   
154.40601483   
155.08659159   
154.41569903   
154.41720830   
155.09008548   
155.09542234   
163.99258062   
163.99246208   
164.02959664   
164.03045377   
164.05525088   
164.05538331   
164.09515485   
164.09469666   
127.17493877   
126.53393877   
126.53364420   
127.18119719   
170.02172828   
170.02188174   
170.02254184   
170.02222074   
162.62589293   
162.65617663   
162.62288798   
162.62637715   
138.02147761   
137.77777025   
137.92428110   
137.92520629   
138.02461608   
138.02782450   
138.38166158   
137.93050543   
171.38130029   
171.38133191   
171.38435264   
171.38424658   
166.21157138   
166.21280738   
166.24607441   
166.22445461   
151.01862860   
150.86654482   
150.86834078   
151.02024706   
150.88015219   
151.02141170   
150.88018946   
151.02190386   
170.70336751   
170.70162512   
170.76593376   
170.76661549   
171.20852910   
171.20920017   
172.27160797   
172.26982561   
162.19956165   
162.20022768   
162.19477410   
162.19518082   
175.70546403   
175.70547838   
175.69901288   
175.69942786   
148.23307584   
148.23249726   
148.34958978   
148.24038078   
143.32908080   
143.34177791   
143.34874092   
143.34715300   
143.33650022   
143.33708782   
143.34981473   
143.35437954   
128.28924332   
128.63149676   
128.69381134   
128.29269278   
128.29638657   
128.62473209   
128.29056559   
128.70035714   
161.10855385   
161.10842901   
161.11708520   
161.11711900   
147.89235531   
147.92636516   
147.89313238   
147.89677973   
164.22861141   
164.22836701   
164.22859727   
164.22875101   
173.30733143   
173.29654109   
173.29503068   
173.29641966   
121.90835732   
121.90529472   
121.90627127   
121.91345702   
178.21126794   
178.15622038   
178.21133501   
178.15587196   
133.84900900   
133.84976485   
133.85457022   
133.85523484   
178.40573625   
178.40623421   
178.32248963   
178.32294227   
179.61067338   
179.61070883   
179.61252016   
179.61237098   
134.17724626   
134.17256488   
134.17741790   
134.18344479   
154.96869418   
154.97002559   
155.17841161   
155.17862796   
154.95079431   
154.95186491   
155.16029654   
155.16014569   
177.06560054   
177.06626214   
178.06990451   
178.06706765   
153.60465516   
153.48107743   
153.60351862   
153.60999828   
175.97556211   
175.97315461   
175.98268777   
175.97533441   
182.69763066   
182.69742015   
182.69879454   
182.69885024   
162.91655924   
162.91610287   
162.91483436   
162.91516066   
124.44449972   
124.52368819   
124.44636796   
124.45099488   
124.47871007   
124.52183371   
124.44620053   
124.48470750   
160.95489643   
160.95367118   
160.58364958   
160.58464792   
161.50076421   
161.50125029   
160.84237597   
160.84108922   
132.34619375   
132.56352274   
132.56055508   
132.56274974   
132.35031742   
132.35356868   
132.34943585   
132.56690871   
143.82040977   
144.00977574   
143.23966079   
143.23924875   
143.82391332   
143.82636049   
143.34465029   
143.24576525   
161.09315676   
160.50034656   
161.09194329   
161.09422186   
178.52998011   
178.52922281   
180.98540600   
180.98562488   
139.41480913   
139.41488123   
139.42116310   
138.35683477   
186.42805923   
186.42210421   
186.42216769   
186.42801713   
179.51704423   
179.50957208   
179.51663595   
179.51100016   
145.17075068   
145.16763362   
145.16067754   
145.16330380   
145.03728091   
145.03670982   
145.02548641   
145.03068044   
167.91761055   
167.91741612   
167.91036260   
167.91035164   
161.35270933   
161.35358401   
161.37063426   
161.36609077   
161.32467066   
161.32453137   
161.32275000   
161.32255009   
180.65215243   
180.65310941   
180.64907384   
180.64465053   
157.86972838   
157.87070060   
157.85965570   
157.86038844   
136.33268878   
136.13479582   
136.14144017   
136.14071716   
136.33423139   
136.33275449   
136.14285272   
136.33902796   
169.79148814   
169.79196364   
169.79095916   
169.79110770   
149.09007030   
149.09146911   
149.04790538   
149.09767854   
149.04782815   
149.09746132   
149.05550310   
149.05628535   
164.79781899   
164.72864425   
164.53542922   
164.53673533   
181.90027832   
181.90280857   
182.21268425   
182.21208265   
170.91780622   
170.91760258   
170.91661336   
170.91669260   
140.59269534   
140.59315403   
140.59827852   
140.54684364   
166.87002130   
166.86484675   
166.86497109   
166.87067842   
148.34618232   
148.29417159   
148.29361609   
148.29882553   
184.62486175   
184.62521408   
184.97148874   
184.97165371   
184.95294130   
184.95321431   
162.40015201   
162.39982079   
162.39957926   
162.39983672   
183.08336554   
183.08438282   
150.79664084   
150.79583468   
150.77483444   
150.77671886   
150.89305323   
150.89267497   
150.86805880   
150.87006258   
182.35713698   
182.35554002   
169.59607472   
169.59641610   
169.08318907   
169.08222160   
156.33623048   
156.33602687   
156.32491426   
156.32470636   
169.37204874   
169.37290066   
169.58799522   
169.58869569   
133.07308924   
133.23192028   
133.21638778   
133.23822567   
163.98684937   
163.98493199   
164.11033029   
163.99054776   
165.33726410   
165.33739257   
165.34032921   
165.34033977   
157.21755889   
157.21877713   
157.24879319   
157.24855417   
156.95902108   
156.88912908   
156.95938236   
156.88924410   
129.47490587   
129.38576014   
129.48139197   
129.38332433   
161.78575924   
161.78664901   
161.83481118   
161.83182716   
160.27849224   
160.27907803   
160.27662779   
160.27711310   
158.35676842   
158.35770976   
157.91657867   
158.36946659   
160.31830059   
160.31924816   
160.26900445   
160.26944258   
128.69395096   
128.77999789   
128.69812967   
128.70241097   
128.78553323   
128.78017065   
128.70008125   
128.79289759   
129.49391415   
129.35170901   
129.37010274   
129.50019346   
186.38658875   
186.38658254   
186.38227336   
186.38207162   
133.11805524   
133.10512372   
133.12470083   
133.15056128   
160.21153705   
160.21149237   
160.24232373   
160.24224530   
140.48592948   
140.53027573   
140.44198451   
140.44069986   
140.52546876   
140.52196446   
140.43335991   
140.49641759   
146.18358309   
146.18297084   
146.18987553   
120.72004891   
120.72068651   
120.72123354   
120.72396540   
143.04180144   
143.04169243   
142.58318444   
143.04837601   
150.53231694   
150.53303329   
150.39322238   
150.54010717   
139.09351340   
137.49905381   
137.42567288   
137.42598699   
139.09853030   
139.10035816   
139.09389104   
137.43148065   
122.29695883   
122.30145603   
122.30643325   
122.29921226   
122.31120796   
122.30261493   
122.31063262   
122.31156332   
172.40347489   
172.40365778   
172.38701816   
172.38757717   
186.16965286   
186.16937131   
135.74589536   
135.74429388   
135.75197824   
135.73656513   
186.78431942   
186.78419391   
186.78385243   
186.78389527   
165.85984941   
165.86004248   
165.86066318   
165.86034624   
185.11652241   
185.11345216   
185.09879554   
185.09956525   
153.41917786   
154.75401904   
154.75318873   
154.75680310   
151.33335255   
151.14986306   
151.33502565   
151.33754100   
187.54485817   
187.53355957   
187.53338953   
187.54487197   
146.93496911   
141.41244112   
141.41433012   
141.41808609   
142.67818794   
126.06142326   
125.96580250   
125.96469588   
125.96839341   
126.05449219   
126.05350632   
125.96055978   
126.05426891   
159.99148267   
159.98168720   
160.06710976   
160.06806570   
158.59316560   
158.59301023   
158.58895662   
158.58876929   
186.41395448   
186.41432112   
186.01005970   
186.00881494   
186.00805214   
186.01175500   
124.12023411   
123.80788676   
123.80507307   
124.12622573   
169.29279004   
169.29353939   
170.15032871   
170.14679378   
161.52440586   
161.52414256   
161.52446291   
161.52468036   
155.20094175   
155.20207149   
155.21272574   
155.21077518   
187.62966732   
187.62958698   
187.62761942   
187.62762280   
169.39104824   
169.38964235   
169.38496604   
169.38715097   
188.65735145   
188.65772089   
187.71669708   
187.71695014   
130.98076412   
130.85142846   
130.84799042   
130.98702933   
171.26285314   
171.26230897   
171.23749595   
171.23764213   
176.67890300   
176.67898489   
176.67951170   
176.67928224   
186.04166670   
186.03891279   
186.04335240   
186.03966976   
152.75953801   
152.75905871   
152.90423968   
152.74313292   
152.90388121   
152.74470451   
152.75647055   
152.75798955   
176.49576280   
176.49561134   
176.51041736   
176.51039035   
155.57306438   
155.57200023   
156.61843435   
155.58079741   
153.98925710   
153.99785825   
153.98860790   
153.99842726   
137.35269673   
178.37292602   
178.36862880   
178.37282477   
178.36860820   
137.13389983   
137.13544783   
137.13997639   
155.51665201   
155.51516245   
155.52005842   
166.89772098   
166.89729333   
166.89617972   
166.89640618   
185.91048797   
185.90969475   
177.68948080   
177.68997567   
188.11494130   
188.11631265   
126.38668917   
126.39025111   
126.38928813   
126.39313534   
186.79119537   
186.79167678   
172.01933083   
172.01520157   
172.03483665   
172.01778435   
155.47435529   
173.66704915   
173.66693651   
173.66651063   
173.66684034   
187.67140889   
187.67105494   
188.38673780   
188.38680506   
173.58630912   
173.58474168   
173.60187976   
173.58768448   
169.60626486   
169.60718879   
168.65250691   
168.73976307   
133.63966686   
133.69069964   
133.67023360   
133.69697254   
161.30497771   
161.30596088   
161.30554539   
161.30533201   
138.63215364   
138.47554644   
138.47523706   
138.48167143   
125.99969441   
126.00580822   
172.68506733   
172.62073963   
172.80106672   
172.80208977   
147.34668321   
147.34496783   
147.33952963   
147.34138800   
147.80266047   
147.80283960   
147.79225830   
147.79564173   
126.30412511   
126.06146325   
158.16297909   
158.16228328   
158.16617884   
158.16698835   
148.49727005   
148.50174884   
148.50811874   
148.50658633   
148.66316601   
148.66413839   
148.67308100   
148.66981059   
123.52265608   
123.79435429   
123.79488720   
123.52833501   
147.28240268   
147.27906210   
147.26521724   
147.26776144   
147.29470018   
147.29544609   
147.27823246   
147.27991630   
135.51724044   
135.52407864   
135.51817812   
135.59112623   
131.82800573   
131.82589568   
131.85366650   
131.82720998   
131.83256592   
131.86026793   
131.86156466   
131.85842916   
121.15264603   
121.14833990   
121.15304845   
121.15059610   
121.15200878   
121.15000891   
121.15426651   
121.14880233   
144.09867952   
177.09171200   
177.09227568   
155.22239486   
155.22358875   
155.21598122   
155.21705976   
188.38318833   
188.38128949   
177.31145352   
177.31112595   
177.31386362   
177.31391883   
153.23857312   
153.24010356   
153.44952655   
153.44984318   
153.28429736   
153.28559685   
153.34702375   
153.34692666   
166.68572496   
166.68565407   
166.68556561   
166.68538445   
147.51711775   
198.66626334   
198.61615525   
198.61567483   
198.61565078   
198.61475841   
198.59644809   
198.59649408   
198.59740190   
198.59549983   
198.64826848   
198.64935382   
198.64848208   
198.64829728   
198.56508793   
198.56510582   
198.56401682   
198.56525113   
198.56623764   
198.56602273   
198.56605513   
198.56388943   
198.55747355   
198.55589750   
198.55587217   
198.55466677   
198.65350329   
198.63092917   
198.63089247   
198.62517257   
198.62687203   
198.53719495   
198.53713679   
198.53717226   
198.53933853   
198.54067422   
198.54227189   
198.53924150   
198.54071159   
198.65616817   
198.65707051   
198.61649874   
198.61659080   
198.61571436   
198.61595048   
198.64469206   
198.52425705   
198.52423457   
198.52312950   
198.52434122   
198.52587972   
198.53152448   
198.52820435   
198.52823478   
198.66057912   
198.66090157   
198.51954985   
198.51957049   
198.51708540   
198.51963879   
198.51916197   
198.52160821   
198.51919738   
198.51831520   
198.60669907   
198.60658550   
198.60654684   
198.58737862   
198.58735780   
198.58764961   
198.58731994   
198.58627404   
198.64126477   
198.64091864   
198.59585281   
198.66160111   
198.59176514   
198.59225716   
198.59228891   
198.62810158   
198.62792911   
198.62793329   
198.62811575   
198.66153548   
198.58059330   
198.58041857   
198.58059804   
198.58160759   
198.51151713   
198.51148559   
198.51155712   
198.51154591   
198.57725192   
198.57770316   
198.57767462   
198.63766967   
198.64717609   
198.64966276   
198.60773869   
198.51741836   
198.52017119   
198.51739337   
198.52809765   
198.56102865   
198.56106780   
198.56206197   
198.56366838   
198.64756794   
198.64750340   
198.63057466   
198.63066046   
198.63525815   
198.66335709   
198.51187516   
198.51189603   
198.50966506   
198.51201274   
198.51366852   
198.51194977   
198.51202338   
198.51198276   
198.63463428   
198.63273333   
198.50435505   
198.50436133   
198.49949591   
198.49851611   
198.50439305   
198.50060679   
198.49947318   
198.50225665   
198.50898305   
198.51179052   
198.51176226   
198.51153248   
198.56617387   
198.66400167   
198.56222914   
198.56323645   
198.56327090   
198.61445301   
198.61421215   
198.61447651   
198.60963310   
198.60962305   
198.59229957   
198.59274714   
198.59216740   
198.59214239   
198.59216172   
198.63682135   
198.63732633   
198.65725161   
198.55457181   
198.55458830   
198.55386744   
198.55522153   
198.61230681   
198.59232975   
198.59233145   
198.61241666   
198.61276164   
198.61362890   
198.65372993   
198.65396850   
198.61529171   
198.63365090   
198.63371787   
198.55834793   
198.55832546   
198.55846186   
198.55904951   
198.56024658   
198.57677900   
198.60974946   
198.61041063   
198.57258084   
198.57429565   
198.57433277   
198.66166091   
198.64348010   
198.65640343   
198.58175227   
198.62424726   
198.65282066   
198.64533932   
198.64568213   
198.49076794   
198.49080828   
198.49074694   
198.48706681   
198.48818466   
198.48722834   
198.48720306   
198.48777029   
198.65701445   
198.66428711   
198.60956579   
198.61159417   
198.61161790   
198.64388350   
198.54542278   
198.54544322   
198.54081725   
198.54552285   
198.54677224   
198.54228552   
198.54218876   
198.54231746   
198.55351488   
198.55229224   
198.55226406   
198.49130164   
198.49127891   
198.49308086   
198.49130865   
198.49782838   
198.49731317   
198.50011347   
198.50014396   
198.62725723   
198.62727813   
198.58775523   
198.64744912   
198.64330800   
198.58855132   
198.58917920   
198.58921123   
198.65464196   
198.63683154   
198.63153323   
198.49032808   
198.49190522   
198.49036468   
198.49349476   
198.49188437   
198.48743935   
198.49609763   
198.49024596   
198.60568029   
198.56545587   
198.56538989   
198.56548703   
198.57969909   
198.62844563   
198.62819940   
198.59712760   
198.59780444   
198.60261531   
198.60130723   
198.60258799   
198.57019537   
198.57017732   
198.56995332   
198.57064698   
198.65635267   
198.65417215   
198.65653251   
198.62144086   
198.62148386   
198.54636015   
198.56378027   
198.63534095   
198.63590075   
198.54064098   
198.54064187   
198.54081893   
198.53674194   
198.59782111   
198.59785092   
198.59943906   
198.49279208   
198.49282690   
198.49373009   
198.49286067   
198.49091077   
198.49047117   
198.49045063   
198.48978819   
198.65894488   
198.57478719   
198.57476330   
198.57488502   
198.49936062   
198.49783416   
198.49933428   
198.49806842   
198.66469569   
198.61285888   
198.54610364   
198.53505213   
198.53654798   
198.54750732   
198.54754129   
198.53658390   
198.53679025   
198.65107890   
198.53760119   
198.53879770   
198.66144063   
198.54066920   
198.54068847   
198.54062616   
198.54206316   