<VTKFile type="UnstructuredGrid"  version="0.1"   > 
<UnstructuredGrid> 
<Piece  NumberOfPoints="  4569" NumberOfCells=" 8648"> 
<Points> 
<DataArray  type="Float64"  NumberOfComponents="3"  format="ascii" > 
0.000000 0.000000 0.0 
0.071429 0.000000 0.0 
0.071429 0.071429 0.0 
0.000000 0.071429 0.0 
0.058929 0.035714 0.0 
0.035714 0.058929 0.0 
0.012500 0.035714 0.0 
0.035714 0.012500 0.0 
0.058929 0.035714 0.0 
0.035714 0.058929 0.0 
0.012500 0.035714 0.0 
0.035714 0.012500 0.0 
0.001190 0.000000 0.0 
0.002381 0.000000 0.0 
0.003571 0.000000 0.0 
0.004762 0.000000 0.0 
0.005952 0.000000 0.0 
0.007143 0.000000 0.0 
0.008333 0.000000 0.0 
0.009524 0.000000 0.0 
0.010714 0.000000 0.0 
0.011905 0.000000 0.0 
0.013095 0.000000 0.0 
0.014286 0.000000 0.0 
0.015476 0.000000 0.0 
0.016667 0.000000 0.0 
0.017857 0.000000 0.0 
0.019048 0.000000 0.0 
0.020238 0.000000 0.0 
0.021429 0.000000 0.0 
0.022619 0.000000 0.0 
0.023810 0.000000 0.0 
0.025000 0.000000 0.0 
0.026190 0.000000 0.0 
0.027381 0.000000 0.0 
0.028571 0.000000 0.0 
0.029762 0.000000 0.0 
0.030952 0.000000 0.0 
0.032143 0.000000 0.0 
0.033333 0.000000 0.0 
0.034524 0.000000 0.0 
0.035714 0.000000 0.0 
0.036905 0.000000 0.0 
0.038095 0.000000 0.0 
0.039286 0.000000 0.0 
0.040476 0.000000 0.0 
0.041667 0.000000 0.0 
0.042857 0.000000 0.0 
0.044048 0.000000 0.0 
0.045238 0.000000 0.0 
0.046429 0.000000 0.0 
0.047619 0.000000 0.0 
0.048810 0.000000 0.0 
0.050000 0.000000 0.0 
0.051190 0.000000 0.0 
0.052381 0.000000 0.0 
0.053571 0.000000 0.0 
0.054762 0.000000 0.0 
0.055952 0.000000 0.0 
0.057143 0.000000 0.0 
0.058333 0.000000 0.0 
0.059524 0.000000 0.0 
0.060714 0.000000 0.0 
0.061905 0.000000 0.0 
0.063095 0.000000 0.0 
0.064286 0.000000 0.0 
0.065476 0.000000 0.0 
0.066667 0.000000 0.0 
0.067857 0.000000 0.0 
0.069048 0.000000 0.0 
0.070238 0.000000 0.0 
0.001190 0.071429 0.0 
0.002381 0.071429 0.0 
0.003571 0.071429 0.0 
0.004762 0.071429 0.0 
0.005952 0.071429 0.0 
0.007143 0.071429 0.0 
0.008333 0.071429 0.0 
0.009524 0.071429 0.0 
0.010714 0.071429 0.0 
0.011905 0.071429 0.0 
0.013095 0.071429 0.0 
0.014286 0.071429 0.0 
0.015476 0.071429 0.0 
0.016667 0.071429 0.0 
0.017857 0.071429 0.0 
0.019048 0.071429 0.0 
0.020238 0.071429 0.0 
0.021429 0.071429 0.0 
0.022619 0.071429 0.0 
0.023810 0.071429 0.0 
0.025000 0.071429 0.0 
0.026190 0.071429 0.0 
0.027381 0.071429 0.0 
0.028571 0.071429 0.0 
0.029762 0.071429 0.0 
0.030952 0.071429 0.0 
0.032143 0.071429 0.0 
0.033333 0.071429 0.0 
0.034524 0.071429 0.0 
0.035714 0.071429 0.0 
0.036905 0.071429 0.0 
0.038095 0.071429 0.0 
0.039286 0.071429 0.0 
0.040476 0.071429 0.0 
0.041667 0.071429 0.0 
0.042857 0.071429 0.0 
0.044048 0.071429 0.0 
0.045238 0.071429 0.0 
0.046429 0.071429 0.0 
0.047619 0.071429 0.0 
0.048810 0.071429 0.0 
0.050000 0.071429 0.0 
0.051190 0.071429 0.0 
0.052381 0.071429 0.0 
0.053571 0.071429 0.0 
0.054762 0.071429 0.0 
0.055952 0.071429 0.0 
0.057143 0.071429 0.0 
0.058333 0.071429 0.0 
0.059524 0.071429 0.0 
0.060714 0.071429 0.0 
0.061905 0.071429 0.0 
0.063095 0.071429 0.0 
0.064286 0.071429 0.0 
0.065476 0.071429 0.0 
0.066667 0.071429 0.0 
0.067857 0.071429 0.0 
0.069048 0.071429 0.0 
0.070238 0.071429 0.0 
0.000000 0.001190 0.0 
0.000000 0.002381 0.0 
0.000000 0.003571 0.0 
0.000000 0.004762 0.0 
0.000000 0.005952 0.0 
0.000000 0.007143 0.0 
0.000000 0.008333 0.0 
0.000000 0.009524 0.0 
0.000000 0.010714 0.0 
0.000000 0.011905 0.0 
0.000000 0.013095 0.0 
0.000000 0.014286 0.0 
0.000000 0.015476 0.0 
0.000000 0.016667 0.0 
0.000000 0.017857 0.0 
0.000000 0.019048 0.0 
0.000000 0.020238 0.0 
0.000000 0.021429 0.0 
0.000000 0.022619 0.0 
0.000000 0.023810 0.0 
0.000000 0.025000 0.0 
0.000000 0.026190 0.0 
0.000000 0.027381 0.0 
0.000000 0.028571 0.0 
0.000000 0.029762 0.0 
0.000000 0.030952 0.0 
0.000000 0.032143 0.0 
0.000000 0.033333 0.0 
0.000000 0.034524 0.0 
0.000000 0.035714 0.0 
0.000000 0.036905 0.0 
0.000000 0.038095 0.0 
0.000000 0.039286 0.0 
0.000000 0.040476 0.0 
0.000000 0.041667 0.0 
0.000000 0.042857 0.0 
0.000000 0.044048 0.0 
0.000000 0.045238 0.0 
0.000000 0.046429 0.0 
0.000000 0.047619 0.0 
0.000000 0.048810 0.0 
0.000000 0.050000 0.0 
0.000000 0.051190 0.0 
0.000000 0.052381 0.0 
0.000000 0.053571 0.0 
0.000000 0.054762 0.0 
0.000000 0.055952 0.0 
0.000000 0.057143 0.0 
0.000000 0.058333 0.0 
0.000000 0.059524 0.0 
0.000000 0.060714 0.0 
0.000000 0.061905 0.0 
0.000000 0.063095 0.0 
0.000000 0.064286 0.0 
0.000000 0.065476 0.0 
0.000000 0.066667 0.0 
0.000000 0.067857 0.0 
0.000000 0.069048 0.0 
0.000000 0.070238 0.0 
0.071429 0.001190 0.0 
0.071429 0.002381 0.0 
0.071429 0.003571 0.0 
0.071429 0.004762 0.0 
0.071429 0.005952 0.0 
0.071429 0.007143 0.0 
0.071429 0.008333 0.0 
0.071429 0.009524 0.0 
0.071429 0.010714 0.0 
0.071429 0.011905 0.0 
0.071429 0.013095 0.0 
0.071429 0.014286 0.0 
0.071429 0.015476 0.0 
0.071429 0.016667 0.0 
0.071429 0.017857 0.0 
0.071429 0.019048 0.0 
0.071429 0.020238 0.0 
0.071429 0.021429 0.0 
0.071429 0.022619 0.0 
0.071429 0.023810 0.0 
0.071429 0.025000 0.0 
0.071429 0.026190 0.0 
0.071429 0.027381 0.0 
0.071429 0.028571 0.0 
0.071429 0.029762 0.0 
0.071429 0.030952 0.0 
0.071429 0.032143 0.0 
0.071429 0.033333 0.0 
0.071429 0.034524 0.0 
0.071429 0.035714 0.0 
0.071429 0.036905 0.0 
0.071429 0.038095 0.0 
0.071429 0.039286 0.0 
0.071429 0.040476 0.0 
0.071429 0.041667 0.0 
0.071429 0.042857 0.0 
0.071429 0.044048 0.0 
0.071429 0.045238 0.0 
0.071429 0.046429 0.0 
0.071429 0.047619 0.0 
0.071429 0.048810 0.0 
0.071429 0.050000 0.0 
0.071429 0.051190 0.0 
0.071429 0.052381 0.0 
0.071429 0.053571 0.0 
0.071429 0.054762 0.0 
0.071429 0.055952 0.0 
0.071429 0.057143 0.0 
0.071429 0.058333 0.0 
0.071429 0.059524 0.0 
0.071429 0.060714 0.0 
0.071429 0.061905 0.0 
0.071429 0.063095 0.0 
0.071429 0.064286 0.0 
0.071429 0.065476 0.0 
0.071429 0.066667 0.0 
0.071429 0.067857 0.0 
0.071429 0.069048 0.0 
0.071429 0.070238 0.0 
0.058899 0.036890 0.0 
0.058809 0.038063 0.0 
0.058661 0.039230 0.0 
0.058453 0.040387 0.0 
0.058188 0.041533 0.0 
0.057864 0.042664 0.0 
0.057484 0.043777 0.0 
0.057047 0.044869 0.0 
0.056556 0.045938 0.0 
0.056012 0.046980 0.0 
0.055415 0.047994 0.0 
0.054768 0.048976 0.0 
0.054072 0.049924 0.0 
0.053328 0.050835 0.0 
0.052540 0.051708 0.0 
0.051708 0.052540 0.0 
0.050835 0.053328 0.0 
0.049924 0.054072 0.0 
0.048976 0.054768 0.0 
0.047994 0.055415 0.0 
0.046980 0.056012 0.0 
0.045938 0.056556 0.0 
0.044869 0.057047 0.0 
0.043777 0.057484 0.0 
0.042664 0.057864 0.0 
0.041533 0.058188 0.0 
0.040387 0.058453 0.0 
0.039230 0.058661 0.0 
0.038063 0.058809 0.0 
0.036890 0.058899 0.0 
0.034539 0.058899 0.0 
0.033366 0.058809 0.0 
0.032199 0.058661 0.0 
0.031041 0.058453 0.0 
0.029896 0.058188 0.0 
0.028765 0.057864 0.0 
0.027652 0.057484 0.0 
0.026560 0.057047 0.0 
0.025491 0.056556 0.0 
0.024448 0.056012 0.0 
0.023435 0.055415 0.0 
0.022453 0.054768 0.0 
0.021505 0.054072 0.0 
0.020593 0.053328 0.0 
0.019720 0.052540 0.0 
0.018889 0.051708 0.0 
0.018100 0.050835 0.0 
0.017357 0.049924 0.0 
0.016661 0.048976 0.0 
0.016014 0.047994 0.0 
0.015417 0.046980 0.0 
0.014872 0.045938 0.0 
0.014381 0.044869 0.0 
0.013945 0.043777 0.0 
0.013565 0.042664 0.0 
0.013241 0.041533 0.0 
0.012975 0.040387 0.0 
0.012768 0.039230 0.0 
0.012619 0.038063 0.0 
0.012530 0.036890 0.0 
0.012530 0.034539 0.0 
0.012619 0.033366 0.0 
0.012768 0.032199 0.0 
0.012975 0.031041 0.0 
0.013241 0.029896 0.0 
0.013565 0.028765 0.0 
0.013945 0.027652 0.0 
0.014381 0.026560 0.0 
0.014872 0.025491 0.0 
0.015417 0.024448 0.0 
0.016014 0.023435 0.0 
0.016661 0.022453 0.0 
0.017357 0.021505 0.0 
0.018100 0.020593 0.0 
0.018889 0.019720 0.0 
0.019720 0.018889 0.0 
0.020593 0.018100 0.0 
0.021505 0.017357 0.0 
0.022453 0.016661 0.0 
0.023435 0.016014 0.0 
0.024448 0.015417 0.0 
0.025491 0.014872 0.0 
0.026560 0.014381 0.0 
0.027652 0.013945 0.0 
0.028765 0.013565 0.0 
0.029896 0.013241 0.0 
0.031041 0.012975 0.0 
0.032199 0.012768 0.0 
0.033366 0.012619 0.0 
0.034539 0.012530 0.0 
0.036890 0.012530 0.0 
0.038063 0.012619 0.0 
0.039230 0.012768 0.0 
0.040387 0.012975 0.0 
0.041533 0.013241 0.0 
0.042664 0.013565 0.0 
0.043777 0.013945 0.0 
0.044869 0.014381 0.0 
0.045938 0.014872 0.0 
0.046980 0.015417 0.0 
0.047994 0.016014 0.0 
0.048976 0.016661 0.0 
0.049924 0.017357 0.0 
0.050835 0.018100 0.0 
0.051708 0.018889 0.0 
0.052540 0.019720 0.0 
0.053328 0.020593 0.0 
0.054072 0.021505 0.0 
0.054768 0.022453 0.0 
0.055415 0.023435 0.0 
0.056012 0.024448 0.0 
0.056556 0.025491 0.0 
0.057047 0.026560 0.0 
0.057484 0.027652 0.0 
0.057864 0.028765 0.0 
0.058188 0.029896 0.0 
0.058453 0.031041 0.0 
0.058661 0.032199 0.0 
0.058809 0.033366 0.0 
0.058899 0.034539 0.0 
0.058899 0.036890 0.0 
0.058809 0.038063 0.0 
0.058661 0.039230 0.0 
0.058453 0.040387 0.0 
0.058188 0.041533 0.0 
0.057864 0.042664 0.0 
0.057484 0.043777 0.0 
0.057047 0.044869 0.0 
0.056556 0.045938 0.0 
0.056012 0.046980 0.0 
0.055415 0.047994 0.0 
0.054768 0.048976 0.0 
0.054072 0.049924 0.0 
0.053328 0.050835 0.0 
0.052540 0.051708 0.0 
0.051708 0.052540 0.0 
0.050835 0.053328 0.0 
0.049924 0.054072 0.0 
0.048976 0.054768 0.0 
0.047994 0.055415 0.0 
0.046980 0.056012 0.0 
0.045938 0.056556 0.0 
0.044869 0.057047 0.0 
0.043777 0.057484 0.0 
0.042664 0.057864 0.0 
0.041533 0.058188 0.0 
0.040387 0.058453 0.0 
0.039230 0.058661 0.0 
0.038063 0.058809 0.0 
0.036890 0.058899 0.0 
0.034539 0.058899 0.0 
0.033366 0.058809 0.0 
0.032199 0.058661 0.0 
0.031041 0.058453 0.0 
0.029896 0.058188 0.0 
0.028765 0.057864 0.0 
0.027652 0.057484 0.0 
0.026560 0.057047 0.0 
0.025491 0.056556 0.0 
0.024448 0.056012 0.0 
0.023435 0.055415 0.0 
0.022453 0.054768 0.0 
0.021505 0.054072 0.0 
0.020593 0.053328 0.0 
0.019720 0.052540 0.0 
0.018889 0.051708 0.0 
0.018100 0.050835 0.0 
0.017357 0.049924 0.0 
0.016661 0.048976 0.0 
0.016014 0.047994 0.0 
0.015417 0.046980 0.0 
0.014872 0.045938 0.0 
0.014381 0.044869 0.0 
0.013945 0.043777 0.0 
0.013565 0.042664 0.0 
0.013241 0.041533 0.0 
0.012975 0.040387 0.0 
[...]
<PointData  Scalars="DataArray"> 
<DataArray  type="Float64"  Name="u" NumberOfComponents="1" format="ascii"> 
  5.94657884   
  6.66086455   
  7.37515027   
  6.66086455   
 22.88177792   
 22.88177390   
 22.87816322   
 22.87816747   
 22.88177792   
 22.88177390   
 22.87816322   
 22.87816747   
  5.98831084   
  6.07105985   
  6.19623584   
  6.36317773   
  6.57152187   
  6.81783102   
  7.09957081   
  7.41541906   
  7.76294892   
  8.13770251   
  8.53741034   
  8.95776042   
  9.39314552   
  9.84005451   
 10.29330803   
 10.74847849   
 11.20235148   
 11.64717780   
 12.07799574   
 12.49114935   
 12.88202273   
 13.24629391   
 13.57322050   
 13.87229787   
 14.12985388   
 14.34512610   
 14.51631754   
 14.64049935   
 14.71940894   
 14.75075667   
 14.73207871   
 14.66426027   
 14.54997999   
 14.39130171   
 14.18843803   
 13.94492182   
 13.66353521   
 13.34720526   
 13.00040158   
 12.62770482   
 12.23350426   
 11.82138112   
 11.39814705   
 10.96902779   
 10.53741163   
 10.10854245   
  9.68769716   
  9.27992906   
  8.88911610   
  8.51919202   
  8.17448231   
  7.85909597   
  7.57550053   
  7.32540486   
  7.11197989   
  6.93884672   
  6.80625405   
  6.71496337   
  6.66729553   
  6.70259656   
  6.78534556   
  6.91052155   
  7.07746344   
  7.28580758   
  7.53211674   
  7.81385652   
  8.12970477   
  8.47723464   
  8.85198822   
  9.25169605   
  9.67204613   
 10.10743123   
 10.55434022   
 11.00759375   
 11.46276420   
 11.91663719   
 12.36146351   
 12.79228145   
 13.20543506   
 13.59630844   
 13.96057963   
 14.28750621   
 14.58658359   
 14.84413959   
 15.05941181   
 15.23060325   
 15.35478506   
 15.43369466   
 15.46504239   
 15.44636442   
 15.37854598   
 15.26426571   
 15.10558742   
 14.90272374   
 14.65920754   
 14.37782092   
 14.06149098   
 13.71468729   
 13.34199054   
 12.94778997   
 12.53566683   
 12.11243277   
 11.68331351   
 11.25169734   
 10.82282816   
 10.40198288   
  9.99421477   
  9.60340182   
  9.23347773   
  8.88876802   
  8.57338169   
  8.28978625   
  8.03969058   
  7.82626560   
  7.65313243   
  7.52053976   
  7.42924909   
  7.38158124   
  5.98857285   
  6.06909186   
  6.19583503   
  6.36325077   
  6.57092220   
  6.81696543   
  7.09967792   
  7.41658320   
  7.76423655   
  8.13913848   
  8.53819837   
  8.95682206   
  9.39204055   
  9.83973543   
 10.29376915   
 10.74968639   
 11.20211858   
 11.64531150   
 12.07768599   
 12.49196629   
 12.88212661   
 13.24466106   
 13.57523330   
 13.87179638   
 14.12992216   
 14.34563239   
 14.51680271   
 14.64132126   
 14.72070378   
 14.75061552   
 14.73145079   
 14.66418070   
 14.54940111   
 14.38844785   
 14.19049956   
 13.94631132   
 13.66281525   
 13.34664703   
 12.99972424   
 12.62617015   
 12.23317238   
 11.82102969   
 11.39905114   
 10.96920242   
 10.53779516   
 10.10920229   
  9.68759374   
  9.27986280   
  8.88888607   
  8.51975213   
  8.17472781   
  7.85900810   
  7.57489642   
  7.32437321   
  7.11205964   
  6.93906452   
  6.80645774   
  6.71548408   
  6.66762558   
  6.70285856   
  6.78337757   
  6.91012074   
  7.07753649   
  7.28520792   
  7.53125115   
  7.81396363   
  8.13086892   
  8.47852227   
  8.85342420   
  9.25248408   
  9.67110777   
 10.10632627   
 10.55402115   
 11.00805487   
 11.46397210   
 11.91640430   
 12.35959721   
 12.79197171   
 13.20625200   
 13.59641233   
 13.95894678   
 14.28951901   
 14.58608209   
 14.84420787   
 15.05991810   
 15.23108843   
 15.35560697   
 15.43498949   
 15.46490123   
 15.44573650   
 15.37846641   
 15.26368682   
 15.10273356   
 14.90478528   
 14.66059703   
 14.37710096   
 14.06093275   
 13.71400995   
 13.34045586   
 12.94745809   
 12.53531540   
 12.11333685   
 11.68348813   
 11.25208088   
 10.82348801   
 10.40187946   
  9.99414851   
  9.60317178   
  9.23403784   
  8.88901353   
  8.57329382   
  8.28918214   
  8.03865892   
  7.82634536   
  7.65335023   
  7.52074346   
  7.42976979   
  7.38191129   
 22.88180688   
 22.88174643   
 22.88158770   
 22.88135145   
 22.88105832   
 22.88071958   
 22.88033025   
 22.87992264   
 22.87952944   
 22.87915301   
 22.87880792   
 22.87850644   
 22.87827445   
 22.87812219   
 22.87805028   
 22.87804394   
 22.87812515   
 22.87828928   
 22.87851771   
 22.87881689   
 22.87915287   
 22.87952135   
 22.87991820   
 22.88031964   
 22.88070792   
 22.88105980   
 22.88135810   
 22.88159643   
 22.88174639   
 22.88180357   
 22.88164425   
 22.88142397   
 22.88111474   
 22.88072721   
 22.88027551   
 22.87976673   
 22.87921968   
 22.87867259   
 22.87811811   
 22.87758390   
 22.87707635   
 22.87664001   
 22.87626818   
 22.87596331   
 22.87574039   
 22.87560497   
 22.87555162   
 22.87558414   
 22.87569048   
 22.87586922   
 22.87610111   
 22.87637501   
 22.87668669   
 22.87700555   
 22.87731844   
 22.87761026   
 22.87785492   
 22.87803967   
 22.87816517   
 22.87821845   
 22.87806175   
 22.87785263   
 22.87757566   
 22.87722108   
 22.87680768   
 22.87636816   
 22.87589322   
 22.87541820   
 22.87497223   
 22.87454596   
 22.87415446   
 22.87382671   
 22.87357022   
 22.87336842   
 22.87330979   
 22.87330419   
 22.87338442   
 22.87355998   
 22.87382690   
 22.87415162   
 22.87453752   
 22.87496463   
 22.87542539   
 22.87590841   
 22.87637861   
 22.87681912   
 22.87722127   
 22.87756899   
 22.87785033   
 22.87804922   
 22.87821156   
 22.87816239   
 22.87803966   
 22.87785212   
 22.87760405   
 22.87731645   
 22.87700088   
 22.87668765   
 22.87638924   
 22.87611080   
 22.87586960   
 22.87568959   
 22.87558038   
 22.87554926   
 22.87560738   
 22.87574336   
 22.87596333   
 22.87626127   
 22.87663626   
 22.87708568   
 22.87758511   
 22.87811116   
 22.87867194   
 22.87922381   
 22.87976012   
 22.88026939   
 22.88072374   
 22.88111832   
 22.88143368   
 22.88165587   
 22.88180688   
 22.88174643   
 22.88158770   
 22.88135145   
 22.88105832   
 22.88071958   
 22.88033025   
 22.87992264   
 22.87952944   
 22.87915301   
 22.87880792   
 22.87850644   
 22.87827445   
 22.87812219   
 22.87805028   
 22.87804394   
 22.87812515   
 22.87828928   
 22.87851771   
 22.87881689   
 22.87915287   
 22.87952135   
 22.87991820   
 22.88031964   
 22.88070792   
 22.88105980   
 22.88135810   
 22.88159643   
 22.88174639   
 22.88180357   
 22.88164425   
 22.88142397   
 22.88111474   
 22.88072721   
 22.88027551   
 22.87976673   
 22.87921968   
 22.87867259   
 22.87811811   
 22.87758390   
 22.87707635   
 22.87664001   
 22.87626818   
 22.87596331   
 22.87574039   
 22.87560497   
 22.87555162   
 22.87558414   
 22.87569048   
 22.87586922   
 22.87610111   
 22.87637501   
 22.87668669   
 22.87700555   
 22.87731844   
 22.87761026   
 22.87785492   
 22.87803967   
 22.87816517   
 22.87821845   
 22.87806175   
 22.87785263   
 22.87757566   
 22.87722108   
 22.87680768   
 22.87636816   
 22.87589322   
 22.87541820   
 22.87497223   
 22.87454596   
 22.87415446   
 22.87382671   
 22.87357022   
 22.87336842   
 22.87330979   
 22.87330419   
 22.87338442   
 22.87355998   
 22.87382690   
 22.87415162   
 22.87453752   
 22.87496463   
 22.87542539   
 22.87590841   
 22.87637861   
 22.87681912   
 22.87722127   
 22.87756899   
 22.87785033   
 22.87804922   
 22.87821156   
 22.87816239   
 22.87803966   
 22.87785212   
 22.87760405   
 22.87731645   
 22.87700088   
 22.87668765   
 22.87638924   
 22.87611080   
 22.87586960   
 22.87568959   
 22.87558038   
 22.87554926   
 22.87560738   
 22.87574336   
 22.87596333   
 22.87626127   
 22.87663626   
 22.87708568   
 22.87758511   
 22.87811116   
 22.87867194   
 22.87922381   
 22.87976012   
 22.88026939   
 22.88072374   
 22.88111832   
 22.88143368   
 22.88165587   
 21.34769182   
 21.29511717   
 21.50246216   
 21.42096805   
  8.38191458   
  7.96052248   
  8.66231050   
  9.07568621   
  9.04334597   
  8.37720949   
  8.73478100   
  9.42224210   
  9.96648652   
  9.65857660   
 10.65709133   
 10.33039338   
 21.38314861   
 21.46634226   
 21.36128050   
 21.48268411   
 21.36732763   
 21.40331471   
 21.36828168   
 21.37738634   
 10.79975304   
 11.04775435   
 10.07337345   
 10.37296385   
 11.70202373   
 11.47892959   
 12.28262063   
 12.15611490   
 21.42781436   
 21.37062500   
 21.38093145   
 21.46821682   
  7.67217398   
  6.93826416   
  7.48593998   
  8.16341894   
 21.43150487   
 21.48066164   
 21.48832746   
 21.58463740   
 12.06706846   
 12.76039794   
 11.92458294   
 12.63383697   
 13.89332209   
 13.24447831   
 13.79588253   
 13.13530630   
 21.47077507   
 21.49224447   
 21.54502073   
 21.56154974   
 21.69790986   
 21.61850106   
 21.22437028   
 21.54791920   
 21.56654035   
 21.56839743   
 21.57619116   
 21.73786997   
 13.24589831   
 13.91086497   
 13.13527789   
 13.80299013   
  7.47336367   
  6.98521518   
  7.66580991   
  8.19238924   
 21.67994172   
 21.63850108   
 21.58697355   
 21.58924118   
 14.75975170   
 15.43084596   
 15.44321228   
 14.79082274   
 14.08683491   
 14.74220532   
 14.80778211   
 14.14700962   
 14.74216516   
 14.78193171   
 14.08425377   
 14.14300089   
 15.35500609   
 15.32074906   
 14.68976086   
 14.66223756   
  6.89765699   
  6.89212234   
  7.58916169   
  6.31155184   
 21.52715374   
 21.12016300   
 21.52895613   
 21.23661265   
 21.64071660   
 21.67964350   
 21.65216054   
 21.60781257   
  6.99091340   
  7.58385063   
  7.00273330   
  6.31135153   
 15.47638273   
 14.81236526   
 14.82261133   
 14.51240833   
 15.48264405   
 15.17058174   
 15.21197717   
 14.58331969   
 13.15431461   
 12.50717973   
 11.23372224   
 11.91231762   
  9.89713244   
 11.69976376   
 10.20528900   
  9.21899122   
 11.06215131   
  9.57171614   
 10.80257789   
 12.36908555   
 11.47259100   
 13.01661974   
  8.30531187   
  9.14069588   
  7.62768537   
  8.78975851   
 10.57235199   
  9.46860801   
 11.25649217   
  9.80409145   
  8.05181681   
  8.73238851   
  6.71356874   
  7.40172052   
  6.72619343   
  6.05754481   
 21.34230786   
 19.92339671   
 19.87827608   
 18.58261174   
 18.49580301   
 17.33049817   
 17.23300477   
 16.17396608   
 16.24547648   
 15.18388355   
 15.23735561   
 14.26335051   
 16.07198520   
 14.30797662   
 13.41397494   
 13.36258094   
 12.58667703   
 13.45595928   
 12.53451859   
 11.82572355   
 11.77803926   
 11.13072280   
 11.17739820   
 10.53932415   
 10.59016387   
 10.00446627   
 11.09211568   
 11.73409118   
 14.33587848   
 13.48813630   
 14.33555338   
 13.51084174   
 14.33222012   
 13.52780029   
 14.32135857   
 11.06277876   
 11.69548499   
 13.54222785   
 14.31403229   
 12.80825299   
 10.06406334   
  9.52688306   
  9.47483427   
  9.04177595   
  9.00076114   
  8.60855666   
 11.04441059   
 11.66424226   
 13.55747548   
 14.27219006   
  9.59929322   
 13.57044419   
 14.26134048   
 11.03923592   
 11.64305432   
 10.46975151   
 12.32116772   
 12.27831533   
 13.01178732   
 12.94080377   
 13.73202644   
 13.62598572   
 14.47703257   
 14.32946972   
 13.52694701   
 14.18785737   
 15.00510526   
 14.96447448   
 15.04722767   
 14.85623238   
  8.58184087   
  8.22712260   
 14.24259441   
 14.90007080   
 15.68716492   
 15.56294345   
 14.05725035   
 14.67585461   
 15.52564323   
 15.29027871   
 11.63579779   
 15.33822662   
 14.23152782   
 10.14000014   
  9.69207132   
  8.26725796   
  7.92068336   
 16.18992601   
 15.89446289   
 15.07251170   
 15.61800650   
 16.48304090   
 16.14381145   
 10.49374814   
  9.96911898   
 15.27578961   
 13.62720506   
 12.90132930   
 10.23301500   
 15.36619996   
 15.83109723   
 16.64409055   
 16.26789156   
 17.11338636   
 16.67118276   
 16.39639207   
 16.22195367   
 15.44443440   
 16.04429033   
 15.33775487   
 15.87688148   
 16.63376590   
 16.40106051   
  9.80604121   
 10.34342581   
  9.30883274   
 16.52376130   
 15.83458190   
 16.26873794   
 17.03985817   
 16.57052358   
 17.36473711   
 16.83198980   
 17.65652992   
 17.09064778   
 13.94302417   
 13.36958052   
 16.49796165   
 17.20706095   
 16.90586806   
 16.18606806   
 16.62370273   
 17.38662136   
 17.03477944   
  8.21751670   
 15.24734192   
 16.34835527   
 16.50712673   
 17.27452358   
 16.62120468   
 17.35478232   
 16.67701427   
 17.41636074   
 16.69225694   
 17.43850596   
 16.66080225   
 17.40642094   
 16.57867402   
 17.32048039   
 16.44702459   
 15.81812560   
 15.64497846   
 16.26721792   
 15.42860781   
 16.04054225   
 15.17064218   
 15.76896322   
 14.87476758   
 15.45134988   
 14.54127952   
 15.09835774   
 14.17722313   
 14.71605019   
 13.78617360   
 14.30186535   
 13.37288940   
 13.86392672   
 12.94284608   
 13.41479372   
 12.50265288   
 12.95768178   
 12.05863336   
 12.48470356   
 11.61401695   
 12.01122001   
 11.17570124   
 11.55305258   
 10.75267161   
 11.11290441   
 10.34890384   
 10.69472589   
 11.49832602   
 11.06326568   
  9.97001020   
 11.90261497   
 11.44859267   
 12.31949686   
 11.84494278   
 12.74246399   
 12.24625404   
 13.16491209   
 12.64636156   
 11.03115884   
  9.66149124   
  9.31896981   
 13.58049171   
 13.04003468   
 12.95645625   
 10.83316797   
 13.98262498   
 13.42108190   
  9.04534133   
  8.73661376   
 14.36569444   
 13.78481992   
 13.28347195   
 12.18061291   
 14.72422496   
 14.12647330   
 15.05337106   
 14.44090435   
 15.34894264   
 14.72603181   
 15.60735784   
 14.97800826   
 15.82632491   
 12.10928396   
  8.49594528   
  8.21886368   
  8.46200858   
 15.19422731   
 16.00390507   
 13.27766079   
 14.41872934   
  8.80499743   
 13.33859469   
 14.60437826   
 15.37382421   
 16.13906290   
  7.97739472   
  7.76175839   
  8.22543212   
 14.38069308   
 15.51506154   
 16.23074851   
 15.59109629   
 16.27512577   
 14.19768574   
 15.39904628   
 15.32357816   
  7.55121852   
  7.36197755   
  7.58200911   
 16.45195351   
 15.65368592   
 16.28149111   
 16.99606003   
 16.94187439   
 16.25139368   
 16.84533748   
 16.06670530   
 15.12467573   
 16.06309659   
 16.18111421   
 16.70651567   
 16.74369722   
  7.18043051   
 16.06643237   
 16.52658106   
 17.27358673   
 17.02547289   
 16.30787122   
 16.73925637   
 16.05452474   
 16.41799301   
 17.20074239   
 16.80957374   
 16.06466787   
 16.38745560   
 15.68262164   
 15.93867101   
 16.73272537   
 16.21541230   
 15.46762651   
 15.67931060   
 16.48804924   
 15.90165178   
 15.12873356   
 15.29394361   
 16.13308918   
 15.46741116   
 14.67807108   
 14.79586357   
 15.58558226   
 14.88456909   
 14.12292786   
 14.20095858   
 14.97422300   
 14.26479402   
 13.49772259   
 13.53215301   
 14.34819578   
 13.56949368   
 12.81919321   
 12.82422581   
 13.60306253   
 12.82960236   
 13.62984560   
 12.83324827   
 12.10032380   
 12.08755033   
 12.83333629   
 12.07613818   
 12.82898319   
 12.06547714   
 11.37700618   
 11.36574260   
 12.05532089   
 10.73627825   
 11.36048122   
 12.04621695   
 11.36191719   
 12.03935216   
 12.78515378   
 12.76388956   
 12.03681369   
 12.74291006   
 12.04160758   
 12.72534789   
 13.48706120   
 13.44095685   
 12.71540060   
 13.39923495   
 14.18403040   
 14.10418095   
 13.36525753   
 14.03115067   
 14.82573993   
 14.70714390   
 13.97007333   
 14.59964972   
 15.38726752   
 15.22771011   
 16.06549697   
 15.84840168   
 15.08539878   
 15.64967345   
 16.45618956   
 16.19710421   
 15.47430219   
 15.95421185   
 16.72131148   
 16.34092513   
 17.20296812   
 16.87365807   
 16.29432689   
 13.65615685   
 14.47554582   
 12.13608209   
 13.57525655   
 11.41731501   
 12.16352683   
 11.53583681   
 10.73350492   
 10.74975460   
 10.17337215   
 10.20809382   
  9.67874976   
  9.73516321   
  9.24838150   
  9.19341608   
  8.80300908   
  8.75341483   
  8.40043726   
  8.35984696   
  8.04181216   
  8.01355933   
  8.34911391   
 17.66626699   
 17.25756264   
 16.58983667   
 16.88952174   
 13.92597865   
 13.34111451   
 11.59871046   
  7.72823164   
 17.62272556   
 17.16878885   
 11.02198393   
 17.92200757   
 17.41724066   
  8.01763623   
  8.36777996   
 18.32760649   
 17.64856468   
 16.95032564   
 17.10157700   
 17.80002062   
 17.20461624   
 17.91412441   
 17.26398227   
 16.66530113   
 16.67080238   
 17.27698216   
 16.63069876   
 17.24094779   
 16.54582002   
 17.15663596   
 16.41783320   
 17.02574710   
 16.23767984   
 16.84567404   
 16.02183564   
 16.62129092   
 15.77651777   
 16.35699151   
 15.51296619   
 16.05132674   
 15.20193992   
 15.71037845   
 14.82554086   
 15.33497842   
 14.43600327   
 14.93164913   
 14.06348603   
 14.51374856   
 13.65422300   
 14.07854401   
 13.23953157   
 13.64726378   
 12.71146214   
 13.18028367   
 12.36683618   
 12.74396752   
 11.96565650   
 12.31852808   
 11.57519642   
 11.91034896   
 11.19487842   
 11.52472194   
 12.27722006   
 11.87713713   
 12.66371297   
 12.24610869   
 10.84915314   
 10.55247375   
 13.06197382   
 12.63916342   
 13.46758664   
 13.02505637   
 10.24597551   
 13.86990977   
 13.39275640   
  9.98242122   
 11.95916439   
 11.69630644   
 14.26144520   
 13.76495269   
 13.63452855   
  9.71079190   
 14.64075156   
 14.13642294   
 15.00325626   
 14.48157332   
 13.96891425   
 12.83293981   
  9.47901073   
 13.02562355   
 15.34008166   
 14.75742464   
 15.63888547   
 15.04515427   
 15.91025369   
 15.35826482   
 16.15673177   
 15.59935275   
 16.35974949   
  9.23923225   
  9.47618977   
 13.91486801   
  9.03558811   
  9.27008229   
 15.82187428   
 16.52444297   
 13.96062365   
 15.04325175   
 15.03408440   
  8.82743957   
 15.60484879   
 15.98751173   
 16.64468454   
  8.65113682   
 16.09231468   
 16.71727035   
  8.47232076   
 16.09943333   
 16.73748295   
 15.76108272   
 14.81623496   
 15.91693572   
  8.67881428   
 14.61179612   
 17.19429184   
  8.32168030   
  8.50801423   
 17.40375858   
 17.38218167   
 16.74144361   
 17.32025805   
 16.69700434   
 17.21291721   
 16.57695461   
 16.61172039   
 17.06590274   
 17.77136021   
 15.10144790   
 17.60711762   
  9.32915547   
  9.81494508   
 17.02109439   
 15.47801436   
 14.66818300   
  8.47170235   
 16.47532811   
 16.36522846   
 16.96474483   
 17.09559690   
  8.17083119   
 17.83890739   
  7.97711955   
  7.66294429   
  7.62285373   
  7.01652478   
 13.08652911   
 15.31510443   
  8.73529235   
  8.50250186   
  8.03058308   
 16.43481354   
  8.58309758   
  9.94233351   
 10.47309162   
 17.85823927   
  8.23904204   
 17.11349990   
  8.31440662   
  8.80486414   
 16.07323292   
 18.14845461   
 14.87052460   
 13.67454723   
 17.02800430   
 16.01872154   
 10.02490954   
  9.54044231   
 16.52499230   
 16.99319084   
 17.88256301   
 13.11809833   
 14.62532704   
 15.43719455   
 12.72592459   
  8.73515835   
  8.76552580   
  8.41583780   
  8.82232382   
 15.14383110   
 14.71155294   
 17.68978335   
 17.76074144   
  8.62288890   
  9.12884221   
 17.21684403   
 17.87707201   
 15.00164663   
 17.58788688   
  7.39353160   
 17.32656335   
 15.92784756   
 13.36111417   
 12.81577694   
 16.23668998   
  8.04530755   
 17.52150972   
 13.32169697   
 12.78805969   
 17.97907013   
  9.43752676   
  9.92012952   
 18.12933060   
 18.18127569   
 18.15438849   
  9.21056184   
  9.27276788   
  8.90591036   
  9.35849527   
 13.61092199   
 14.47336675   
 14.51827438   
 15.46076284   
 15.50960051   
 15.38953374   
 16.46283050   
 16.35598745   
 12.39084853   
 13.11794677   
 10.53808773   
 10.28098288   
 10.47566864   
 13.30279891   
 18.64533290   
 14.75420086   
 10.93918533   
 15.90481243   
 10.47397543   
 17.59885820   
  7.88099578   
 16.18056524   
 14.75289773   
  7.37312767   
 11.12298880   